P3O93-                                                                  
Freq      RHF                                                         STO-3G*             
Number of atoms                            I               12
Info1-9                                    I   N=           9
          33          32        1002           0           0         100
           6           1           2
Charge                                     I               -3
Multiplicity                               I                1
Number of electrons                        I              120
Number of alpha electrons                  I               60
Number of beta electrons                   I               60
Number of basis functions                  I               87
Number of independent functions            I               87
Number of point charges in /Mol/           I                0
Number of translation vectors              I                0
Atomic numbers                             I   N=          12
          15           8           8          15           8           8
           8           8          15           8           8           8
Nuclear charges                            R   N=          12
  1.50000000E+01  8.00000000E+00  8.00000000E+00  1.50000000E+01  8.00000000E+00
  8.00000000E+00  8.00000000E+00  8.00000000E+00  1.50000000E+01  8.00000000E+00
  8.00000000E+00  8.00000000E+00
Current cartesian coordinates              R   N=          36
 -1.70287389E+00  2.74571244E+00 -1.48632366E-02 -2.72868426E+00 -8.60820452E-02
 -6.30059284E-01 -2.09445823E+00  3.37690381E+00  2.65169203E+00 -1.52644933E+00
 -2.84757859E+00 -1.48710646E-02 -1.87733965E+00 -3.50196800E+00  2.65175888E+00
  1.43890749E+00 -2.32008471E+00 -6.29940269E-01 -2.44696234E+00 -4.56476420E+00
 -1.99381321E+00 -2.72957950E+00  4.40139434E+00 -1.99396381E+00  3.22933909E+00
  1.01856410E-01 -1.48536998E-02  1.28978721E+00  2.40609104E+00 -6.29886290E-01
  5.17660039E+00  1.63277761E-01 -1.99391176E+00  3.97169912E+00  1.25250274E-01
  2.65172620E+00
Force Field                                I                0
Int Atom Types                             I   N=          12
           0           0           0           0           0           0
           0           0           0           0           0           0
MM charges                                 R   N=          12
  0.00000000E+00  0.00000000E+00  0.00000000E+00  0.00000000E+00  0.00000000E+00
  0.00000000E+00  0.00000000E+00  0.00000000E+00  0.00000000E+00  0.00000000E+00
  0.00000000E+00  0.00000000E+00
Integer atomic weights                     I   N=          12
          31          16          16          31          16          16
          16          16          31          16          16          16
Real atomic weights                        R   N=          12
  3.09737634E+01  1.59949146E+01  1.59949146E+01  3.09737634E+01  1.59949146E+01
  1.59949146E+01  1.59949146E+01  1.59949146E+01  3.09737634E+01  1.59949146E+01
  1.59949146E+01  1.59949146E+01
Atom fragment info                         I   N=          12
           0           0           0           0           0           0
           0           0           0           0           0           0
Atom residue num                           I   N=          12
           0           0           0           0           0           0
           0           0           0           0           0           0
Nuclear spins                              I   N=          12
           1           0           0           1           0           0
           0           0           1           0           0           0
Nuclear ZEff                               R   N=          12
 -1.29400000E+01 -5.60000000E+00 -5.60000000E+00 -1.29400000E+01 -5.60000000E+00
 -5.60000000E+00 -5.60000000E+00 -5.60000000E+00 -1.29400000E+01 -5.60000000E+00
 -5.60000000E+00 -5.60000000E+00
Nuclear QMom                               R   N=          12
  0.00000000E+00  0.00000000E+00  0.00000000E+00  0.00000000E+00  0.00000000E+00
  0.00000000E+00  0.00000000E+00  0.00000000E+00  0.00000000E+00  0.00000000E+00
  0.00000000E+00  0.00000000E+00
Nuclear GFac                               R   N=          12
  1.13160000E+00  0.00000000E+00  0.00000000E+00  1.13160000E+00  0.00000000E+00
  0.00000000E+00  0.00000000E+00  0.00000000E+00  1.13160000E+00  0.00000000E+00
  0.00000000E+00  0.00000000E+00
MicOpt                                     I   N=          12
          -1          -1          -1          -1          -1          -1
          -1          -1          -1          -1          -1          -1
Number of contracted shells                I               30
Number of primitive shells                 I               84
Pure/Cartesian d shells                    I                0
Pure/Cartesian f shells                    I                0
Highest angular momentum                   I                2
Largest degree of contraction              I                3
Shell types                                I   N=          30
           0          -1          -1          -2           0          -1
           0          -1           0          -1          -1          -2
           0          -1           0          -1           0          -1
           0          -1           0          -1          -1          -2
           0          -1           0          -1           0          -1
Number of primitives per shell             I   N=          30
           3           3           3           1           3           3
           3           3           3           3           3           1
           3           3           3           3           3           3
           3           3           3           3           3           1
           3           3           3           3           3           3
Shell to atom map                          I   N=          30
           1           1           1           1           2           2
           3           3           4           4           4           4
           5           5           6           6           7           7
           8           8           9           9           9           9
          10          10          11          11          12          12
Primitive exponents                        R   N=          84
  4.68365638E+02  8.53133856E+01  2.30891316E+01  2.80326396E+01  6.51418258E+00
  2.11861435E+00  1.74310323E+00  4.86321377E-01  1.90342891E-01  3.90000000E-01
  1.30709321E+02  2.38088661E+01  6.44360831E+00  5.03315132E+00  1.16959612E+00
  3.80388960E-01  1.30709321E+02  2.38088661E+01  6.44360831E+00  5.03315132E+00
  1.16959612E+00  3.80388960E-01  4.68365638E+02  8.53133856E+01  2.30891316E+01
  2.80326396E+01  6.51418258E+00  2.11861435E+00  1.74310323E+00  4.86321377E-01
  1.90342891E-01  3.90000000E-01  1.30709321E+02  2.38088661E+01  6.44360831E+00
  5.03315132E+00  1.16959612E+00  3.80388960E-01  1.30709321E+02  2.38088661E+01
  6.44360831E+00  5.03315132E+00  1.16959612E+00  3.80388960E-01  1.30709321E+02
  2.38088661E+01  6.44360831E+00  5.03315132E+00  1.16959612E+00  3.80388960E-01
  1.30709321E+02  2.38088661E+01  6.44360831E+00  5.03315132E+00  1.16959612E+00
  3.80388960E-01  4.68365638E+02  8.53133856E+01  2.30891316E+01  2.80326396E+01
  6.51418258E+00  2.11861435E+00  1.74310323E+00  4.86321377E-01  1.90342891E-01
  3.90000000E-01  1.30709321E+02  2.38088661E+01  6.44360831E+00  5.03315132E+00
  1.16959612E+00  3.80388960E-01  1.30709321E+02  2.38088661E+01  6.44360831E+00
  5.03315132E+00  1.16959612E+00  3.80388960E-01  1.30709321E+02  2.38088661E+01
  6.44360831E+00  5.03315132E+00  1.16959612E+00  3.80388960E-01
Contraction coefficients                   R   N=          84
  1.54328967E-01  5.35328142E-01  4.44634542E-01 -9.99672292E-02  3.99512826E-01
  7.00115469E-01 -2.19620369E-01  2.25595434E-01  9.00398426E-01  1.00000000E+00
  1.54328967E-01  5.35328142E-01  4.44634542E-01 -9.99672292E-02  3.99512826E-01
  7.00115469E-01  1.54328967E-01  5.35328142E-01  4.44634542E-01 -9.99672292E-02
  3.99512826E-01  7.00115469E-01  1.54328967E-01  5.35328142E-01  4.44634542E-01
 -9.99672292E-02  3.99512826E-01  7.00115469E-01 -2.19620369E-01  2.25595434E-01
  9.00398426E-01  1.00000000E+00  1.54328967E-01  5.35328142E-01  4.44634542E-01
 -9.99672292E-02  3.99512826E-01  7.00115469E-01  1.54328967E-01  5.35328142E-01
  4.44634542E-01 -9.99672292E-02  3.99512826E-01  7.00115469E-01  1.54328967E-01
  5.35328142E-01  4.44634542E-01 -9.99672292E-02  3.99512826E-01  7.00115469E-01
  1.54328967E-01  5.35328142E-01  4.44634542E-01 -9.99672292E-02  3.99512826E-01
  7.00115469E-01  1.54328967E-01  5.35328142E-01  4.44634542E-01 -9.99672292E-02
  3.99512826E-01  7.00115469E-01 -2.19620369E-01  2.25595434E-01  9.00398426E-01
  1.00000000E+00  1.54328967E-01  5.35328142E-01  4.44634542E-01 -9.99672292E-02
  3.99512826E-01  7.00115469E-01  1.54328967E-01  5.35328142E-01  4.44634542E-01
 -9.99672292E-02  3.99512826E-01  7.00115469E-01  1.54328967E-01  5.35328142E-01
  4.44634542E-01 -9.99672292E-02  3.99512826E-01  7.00115469E-01
P(S=P) Contraction coefficients            R   N=          84
  0.00000000E+00  0.00000000E+00  0.00000000E+00  1.55916275E-01  6.07683719E-01
  3.91957393E-01  1.05876043E-02  5.95167005E-01  4.62001012E-01  0.00000000E+00
  0.00000000E+00  0.00000000E+00  0.00000000E+00  1.55916275E-01  6.07683719E-01
  3.91957393E-01  0.00000000E+00  0.00000000E+00  0.00000000E+00  1.55916275E-01
  6.07683719E-01  3.91957393E-01  0.00000000E+00  0.00000000E+00  0.00000000E+00
  1.55916275E-01  6.07683719E-01  3.91957393E-01  1.05876043E-02  5.95167005E-01
  4.62001012E-01  0.00000000E+00  0.00000000E+00  0.00000000E+00  0.00000000E+00
  1.55916275E-01  6.07683719E-01  3.91957393E-01  0.00000000E+00  0.00000000E+00
  0.00000000E+00  1.55916275E-01  6.07683719E-01  3.91957393E-01  0.00000000E+00
  0.00000000E+00  0.00000000E+00  1.55916275E-01  6.07683719E-01  3.91957393E-01
  0.00000000E+00  0.00000000E+00  0.00000000E+00  1.55916275E-01  6.07683719E-01
  3.91957393E-01  0.00000000E+00  0.00000000E+00  0.00000000E+00  1.55916275E-01
  6.07683719E-01  3.91957393E-01  1.05876043E-02  5.95167005E-01  4.62001012E-01
  0.00000000E+00  0.00000000E+00  0.00000000E+00  0.00000000E+00  1.55916275E-01
  6.07683719E-01  3.91957393E-01  0.00000000E+00  0.00000000E+00  0.00000000E+00
  1.55916275E-01  6.07683719E-01  3.91957393E-01  0.00000000E+00  0.00000000E+00
  0.00000000E+00  1.55916275E-01  6.07683719E-01  3.91957393E-01
Coordinates of each shell                  R   N=          90
 -1.70287389E+00  2.74571244E+00 -1.48632366E-02 -1.70287389E+00  2.74571244E+00
 -1.48632366E-02 -1.70287389E+00  2.74571244E+00 -1.48632366E-02 -1.70287389E+00
  2.74571244E+00 -1.48632366E-02 -2.72868426E+00 -8.60820452E-02 -6.30059284E-01
 -2.72868426E+00 -8.60820452E-02 -6.30059284E-01 -2.09445823E+00  3.37690381E+00
  2.65169203E+00 -2.09445823E+00  3.37690381E+00  2.65169203E+00 -1.52644933E+00
 -2.84757859E+00 -1.48710646E-02 -1.52644933E+00 -2.84757859E+00 -1.48710646E-02
 -1.52644933E+00 -2.84757859E+00 -1.48710646E-02 -1.52644933E+00 -2.84757859E+00
 -1.48710646E-02 -1.87733965E+00 -3.50196800E+00  2.65175888E+00 -1.87733965E+00
 -3.50196800E+00  2.65175888E+00  1.43890749E+00 -2.32008471E+00 -6.29940269E-01
  1.43890749E+00 -2.32008471E+00 -6.29940269E-01 -2.44696234E+00 -4.56476420E+00
 -1.99381321E+00 -2.44696234E+00 -4.56476420E+00 -1.99381321E+00 -2.72957950E+00
  4.40139434E+00 -1.99396381E+00 -2.72957950E+00  4.40139434E+00 -1.99396381E+00
  3.22933909E+00  1.01856410E-01 -1.48536998E-02  3.22933909E+00  1.01856410E-01
 -1.48536998E-02  3.22933909E+00  1.01856410E-01 -1.48536998E-02  3.22933909E+00
  1.01856410E-01 -1.48536998E-02  1.28978721E+00  2.40609104E+00 -6.29886290E-01
  1.28978721E+00  2.40609104E+00 -6.29886290E-01  5.17660039E+00  1.63277761E-01
 -1.99391176E+00  5.17660039E+00  1.63277761E-01 -1.99391176E+00  3.97169912E+00
  1.25250274E-01  2.65172620E+00  3.97169912E+00  1.25250274E-01  2.65172620E+00
Constraint Structure                       R   N=          36
 -1.70287389E+00  2.74571244E+00 -1.48632366E-02 -2.72868426E+00 -8.60820452E-02
 -6.30059284E-01 -2.09445823E+00  3.37690381E+00  2.65169203E+00 -1.52644933E+00
 -2.84757859E+00 -1.48710646E-02 -1.87733965E+00 -3.50196800E+00  2.65175888E+00
  1.43890749E+00 -2.32008471E+00 -6.29940269E-01 -2.44696234E+00 -4.56476420E+00
 -1.99381321E+00 -2.72957950E+00  4.40139434E+00 -1.99396381E+00  3.22933909E+00
  1.01856410E-01 -1.48536998E-02  1.28978721E+00  2.40609104E+00 -6.29886290E-01
  5.17660039E+00  1.63277761E-01 -1.99391176E+00  3.97169912E+00  1.25250274E-01
  2.65172620E+00
Num ILSW                                   I              100
ILSW                                       I   N=         100
           0           0           0           0           2           0
           0           0           0           0           0          -1
           0           0           0           0           2           0
           0           0           1           0           1           0
           1           0           0           0           0           0
           0           0      100000           0          -1           0
           0           0           0           0           0           0
           0           0           0           1           0           0
           0           0           1           0           0           0
           0           0           4          40           0           0
           0           0           0           0           0           0
           0           0           0           0           0           0
           0           0           0           0           0           0
           0           0           0           0           0           0
           0           0           0           0           0           0
           0           0           0           0           0           0
           0           0           0           0
Num RLSW                                   I               40
RLSW                                       R   N=          40
  1.00000000E+00  1.00000000E+00  1.00000000E+00  1.00000000E+00  1.00000000E+00
  0.00000000E+00  0.00000000E+00  1.00000000E+00  0.00000000E+00  0.00000000E+00
  0.00000000E+00  0.00000000E+00  1.00000000E+00  0.00000000E+00  0.00000000E+00
  0.00000000E+00  0.00000000E+00  1.00000000E+00  0.00000000E+00  0.00000000E+00
  0.00000000E+00  0.00000000E+00  1.00000000E+00  0.00000000E+00  0.00000000E+00
  0.00000000E+00  0.00000000E+00  1.00000000E+00  0.00000000E+00  0.00000000E+00
  0.00000000E+00  0.00000000E+00  1.00000000E+00  0.00000000E+00  0.00000000E+00
  0.00000000E+00  0.00000000E+00  0.00000000E+00  1.00000000E+00  1.00000000E+00
MxBond                                     I                4
NBond                                      I   N=          12
           4           2           1           4           1           2
           1           1           4           2           1           1
IBond                                      I   N=          48
           2           3           8          10           1           4
           0           0           1           0           0           0
           2           5           6           7           4           0
           0           0           4           9           0           0
           4           0           0           0           1           0
           0           0           6          10          11          12
           1           9           0           0           9           0
           0           0           9           0           0           0
RBond                                      R   N=          48
  1.00000000E+00  2.00000000E+00  2.00000000E+00  2.00000000E+00  1.00000000E+00
  1.00000000E+00  0.00000000E+00  0.00000000E+00  2.00000000E+00  0.00000000E+00
  0.00000000E+00  0.00000000E+00  1.00000000E+00  2.00000000E+00  1.00000000E+00
  2.00000000E+00  2.00000000E+00  0.00000000E+00  0.00000000E+00  0.00000000E+00
  1.00000000E+00  1.00000000E+00  0.00000000E+00  0.00000000E+00  2.00000000E+00
  0.00000000E+00  0.00000000E+00  0.00000000E+00  2.00000000E+00  0.00000000E+00
  0.00000000E+00  0.00000000E+00  1.00000000E+00  1.00000000E+00  2.00000000E+00
  2.00000000E+00  2.00000000E+00  1.00000000E+00  0.00000000E+00  0.00000000E+00
  2.00000000E+00  0.00000000E+00  0.00000000E+00  0.00000000E+00  2.00000000E+00
  0.00000000E+00  0.00000000E+00  0.00000000E+00
Virial Ratio                               R      2.011178609944801E+00
SCF Energy                                 R     -1.675544140409663E+03
Total Energy                               R     -1.675544140409663E+03
RMS Force                                  R      6.244270352623593E-06
RMS Density                                R      3.101952207348050E-10
External E-field                           R   N=          35
  0.00000000E+00  0.00000000E+00  0.00000000E+00  0.00000000E+00  0.00000000E+00
  0.00000000E+00  0.00000000E+00  0.00000000E+00  0.00000000E+00  0.00000000E+00
  0.00000000E+00  0.00000000E+00  0.00000000E+00  0.00000000E+00  0.00000000E+00
  0.00000000E+00  0.00000000E+00  0.00000000E+00  0.00000000E+00  0.00000000E+00
  0.00000000E+00  0.00000000E+00  0.00000000E+00  0.00000000E+00  0.00000000E+00
  0.00000000E+00  0.00000000E+00  0.00000000E+00  0.00000000E+00  0.00000000E+00
  0.00000000E+00  0.00000000E+00  0.00000000E+00  0.00000000E+00  0.00000000E+00
IOpCl                                      I                0
IROHF                                      I                0
Alpha Orbital Energies                     R   N=          87
 -7.85863974E+01 -7.85863959E+01 -7.85863699E+01 -1.97001336E+01 -1.97001283E+01
 -1.97000627E+01 -1.95588220E+01 -1.95588139E+01 -1.95588095E+01 -1.95531956E+01
 -1.95531915E+01 -1.95531833E+01 -6.83940158E+00 -6.83940026E+00 -6.83872133E+00
 -4.67028785E+00 -4.67019413E+00 -4.67019391E+00 -4.66977163E+00 -4.66977133E+00
 -4.66926158E+00 -4.66926033E+00 -4.66893407E+00 -4.66851804E+00 -8.10222207E-01
 -7.42948321E-01 -7.42944157E-01 -6.66728720E-01 -6.66727962E-01 -6.51555223E-01
 -6.28092642E-01 -6.25930634E-01 -6.25930197E-01 -1.84001280E-01 -1.83993470E-01
 -8.76644810E-02 -3.62700263E-02 -2.14305101E-03  2.91645836E-02  3.44906826E-02
  3.44918401E-02  5.78679337E-02  5.78714514E-02  1.25879831E-01  1.25881047E-01
  1.50532778E-01  1.50534570E-01  1.54022799E-01  1.60401169E-01  1.60404281E-01
  1.80762014E-01  2.05538143E-01  2.05539583E-01  2.08693039E-01  2.27567944E-01
  2.36233906E-01  2.36234498E-01  2.57300377E-01  2.57301594E-01  2.60809472E-01
  1.01930204E+00  1.01930861E+00  1.02851830E+00  1.10227759E+00  1.10227799E+00
  1.13199940E+00  1.13592459E+00  1.14409397E+00  1.14411506E+00  1.21510839E+00
  1.24580197E+00  1.24582139E+00  1.45001391E+00  1.45434328E+00  1.45434558E+00
  1.46909734E+00  1.53030887E+00  1.53031652E+00  1.81425525E+00  1.81425611E+00
  1.92168824E+00  2.00100283E+00  2.06623735E+00  2.06624029E+00  2.08886909E+00
  2.11834440E+00  2.11835002E+00
Alpha MO coefficients                      R   N=        7569
 -6.68127140E-01 -1.20890281E-02 -1.93024123E-05  1.95916274E-05  6.69568955E-06
  2.39224986E-03  1.04705471E-05  3.56283249E-05  1.45279724E-05  1.86132787E-04
  3.54832659E-05 -5.09239807E-05 -3.09384504E-05 -9.15032782E-05  4.94715407E-05
 -3.94749042E-04 -8.85038350E-05 -2.25418160E-04 -4.22336639E-05  5.75286433E-05
 -5.96786168E-04 -5.91401095E-05  9.16721572E-05  3.02721638E-04 -5.20072300E-02
 -9.41188025E-04 -1.06503107E-05  3.06977645E-06  4.91023216E-07  1.87089713E-04
  4.30592682E-05 -2.41287042E-05  1.23269965E-06  1.41839659E-05  7.63150209E-06
  1.62019704E-06  1.49215413E-05  1.92828182E-05  4.48648323E-06 -4.64478337E-05
 -7.08395546E-06 -5.92108121E-06  2.35539226E-05 -4.67981055E-05  3.73353942E-04
  1.93777341E-04  2.26275189E-04  3.97406184E-05  4.42726571E-06 -4.57327606E-05
 -8.71857355E-06 -1.64100642E-05 -1.63149555E-05  5.69251504E-05 -5.87410989E-04
 -1.25868904E-04  2.03046181E-04 -2.09163762E-04  7.34179523E-01  1.32837748E-02
 -2.90670488E-05  3.84727734E-06 -7.42542349E-06 -2.62674194E-03 -2.87936952E-05
 -2.26023816E-05 -1.57492123E-05 -2.05212343E-04  6.77030288E-05 -4.82622540E-07
 -1.04825673E-04  3.55849506E-06 -4.50058175E-06  3.58757909E-05  4.42339279E-04
 -2.46824602E-04  3.73298782E-06 -6.25611676E-05  6.45459137E-04 -2.62417459E-04
 -8.30824678E-06  2.29757279E-04 -6.31967371E-05  6.55791754E-04 -1.19665146E-04
 -2.25719474E-06 -3.32673186E-04 -4.78297183E-01 -8.65313329E-03 -1.66307858E-06
  1.97463447E-05  4.98862981E-06  1.70686845E-03 -4.75805575E-05 -9.94687568E-07
  9.75318844E-06  1.35215645E-04  1.84592687E-05 -3.91872743E-05 -4.66295332E-05
 -5.08470645E-05 -2.11883302E-05  1.69232308E-04  5.58740329E-05 -4.54473751E-04
  1.86039299E-05  4.11287704E-05 -4.27263643E-04 -3.84682087E-05  6.74388093E-05
  2.16779114E-04  7.84329806E-01  1.41923624E-02  1.47001263E-05  2.90454662E-05
 -7.72336532E-06 -2.81220706E-03  1.47071847E-05  2.00330881E-05 -1.75370454E-05
 -2.17144164E-04 -3.44669479E-05 -6.51915173E-05  6.44180940E-05 -9.39734562E-05
 -6.75722065E-05  7.00557375E-04  6.04419500E-05  1.13239965E-04 -3.55338728E-04
 -2.79549951E-05  2.23212543E-04 -3.86028973E-04 -1.75187302E-04  2.43605037E-05
 -6.68090146E-05  6.89619186E-04  1.32480717E-04  2.47131014E-04  2.45682221E-04
  4.07757291E-05 -4.20455068E-04 -9.02283053E-05  1.45392256E-04 -1.49507367E-04
 -3.79706201E-01 -6.86926423E-03  1.34225629E-05  1.01846741E-05  3.99559996E-06
  1.35399257E-03  2.18090672E-05 -4.37652621E-05  7.63066586E-06  1.07694616E-04
 -3.37404073E-05 -6.43305455E-06  5.07891565E-05  2.40374711E-05  5.87262855E-05
 -4.68391603E-04  8.46076403E-05  8.24667575E-05 -4.94409566E-05  3.23749314E-05
 -3.33773697E-04  1.35795644E-04  4.22292231E-06 -1.18645106E-04  3.26409303E-05
 -3.39194933E-04  6.13708272E-05  5.03814116E-06  1.72106542E-04  5.59431923E-01
  1.00988933E-02 -4.65296548E-06  8.33294009E-06 -9.65669362E-06 -1.88518860E-03
  8.02858307E-05 -1.33231046E-04  1.25349748E-06 -1.96636737E-04 -1.28987291E-05
  2.03843801E-05  1.40161524E-05  3.03530023E-05 -7.60177455E-05  6.02464370E-04
  1.32142356E-04 -1.35575140E-05  5.17705743E-05 -4.70364208E-05  5.00484231E-04
  4.28185788E-05 -6.87613930E-05 -2.54867740E-04  6.08480198E-01  1.09863535E-02
 -3.53654222E-06 -6.71000257E-06 -1.01490324E-05 -2.06072714E-03  7.41701706E-05
  1.38865703E-04  1.68773533E-07 -2.10313352E-04 -1.35864371E-05 -2.52847264E-05
  2.22745940E-05 -3.37307621E-05 -5.12589919E-05  5.44291360E-04  4.20637088E-05
  7.84109935E-05 -2.77096241E-04 -7.55211214E-05  5.98497010E-04 -8.61534898E-05
  1.00359765E-04  5.13392772E-05 -5.23452002E-05  5.33701947E-04  1.03722980E-04
  1.93495971E-04  1.85706602E-04 -4.81660847E-05  4.90581244E-04  1.06448701E-04
 -1.71663018E-04  1.70369932E-04  5.52204470E-01  9.96812305E-03  9.80284243E-06
  6.89137391E-07 -9.58280799E-06 -1.85932042E-03 -1.55117133E-04 -6.62103978E-06
  1.39894349E-06 -1.94606856E-04  2.34675709E-05  5.32753782E-07 -3.23827980E-05
 -1.22591835E-06 -7.21562247E-05  5.71661558E-04 -6.09803171E-05 -1.08229470E-04
  4.84629332E-05 -4.75501222E-05  4.84225802E-04 -1.99307644E-04 -6.29026091E-06
  1.68105728E-04 -4.64141789E-05  4.94021805E-04 -7.97835475E-05 -2.39398093E-06
 -2.51591836E-04 -4.45581074E-05  1.37362189E-04  9.21887309E-04  3.58316333E-04
 -5.81599279E-05 -1.07575030E-03 -5.42179040E-03 -2.09451074E-03  3.39655085E-04
  6.05350541E-04  1.24956590E-03  4.51522654E-04 -4.09262717E-03  1.83638088E-03
 -5.18422017E-01 -1.53728727E-02 -1.65398853E-03 -3.52625006E-04 -1.01119342E-03
 -5.12062974E-05 -1.54620470E-04 -1.74910813E-05  3.78528592E-05  1.00898045E-04
  1.12505872E-04 -3.47339492E-04 -2.94611703E-05 -5.04852709E-04  1.45461074E-04
  2.70857163E-03  1.84970024E-04  2.98788269E-03 -8.48813005E-04 -1.52622000E-03
 -7.14151842E-05 -7.34909241E-04 -5.97837409E-04 -8.70681253E-04  1.29349074E-04
  3.90282328E-04  5.08120881E-05  9.23666219E-05 -2.54223273E-04 -2.26482420E-01
 -6.72739845E-03  5.58072498E-05 -8.19343737E-04 -4.46249240E-04  7.36681406E-05
  3.35911923E-04  9.11615772E-05  1.54573555E-04  1.60666967E-04 -3.07758102E-05
 -1.36753188E-04 -9.23766181E-06  7.83728117E-05 -6.71688964E-05 -8.84969259E-05
  2.72960475E-04 -3.84264554E-04  7.48007375E-04 -1.15148670E-04 -2.13438772E-03
  2.27984646E-03 -4.39327158E-03  6.72273315E-04  1.20161762E-03 -5.74289549E-04
  9.98031069E-04  1.11263624E-04  3.51655308E-03  8.17040959E-01  2.41754655E-02
 -1.31616029E-03 -2.27749136E-03  1.57237349E-03 -6.00128011E-05 -2.69001579E-04
  1.40755080E-04  3.05568606E-05 -1.30898735E-04 -1.01713732E-04 -3.07060949E-04
  8.22846722E-05  6.60552328E-06  2.00250150E-04  1.21813835E-04 -3.75803855E-04
  8.18304348E-06  5.89107161E-04  1.58310675E-04  2.93673682E-03 -3.20991487E-05
 -3.48626346E-03 -9.24152192E-04 -1.65362208E-03 -3.18422920E-05  8.56861558E-04
 -1.11037050E-03  1.05467414E-03 -6.23779988E-01 -1.84551920E-02 -2.01495772E-03
  2.06703079E-04 -1.20003064E-03  1.40043839E-04  4.22652619E-04  6.13307288E-05
 -9.57122324E-05 -2.75546523E-04 -1.94015270E-05  6.00002373E-05  9.19329207E-04
 -4.02816091E-04 -2.47693223E-05 -4.65573822E-04 -5.40186717E-03  2.36332442E-03
  1.44397786E-04  2.62854739E-04  1.23330485E-03 -5.30753869E-04 -3.87422652E-03
 -2.50399798E-03 -2.23247619E-05 -6.72757005E-05 -3.99837107E-06 -1.87016856E-05
  4.37231649E-05  7.50504745E-01  2.22424328E-02 -1.37721799E-03  1.98268516E-03
  1.45869989E-03 -1.19366471E-05 -5.61326538E-05  1.57854943E-05 -4.32997842E-05
 -2.59849512E-05  8.19885488E-05  3.68871362E-04  1.11930002E-04 -1.59782327E-04
  1.78872244E-04 -8.50291148E-05  2.62525095E-04 -3.25120687E-04 -6.93710258E-04
 -1.09887268E-04 -2.04685202E-03  1.92875206E-03  4.07560071E-03  6.41204524E-04
  1.15342858E-03 -4.85603310E-04 -9.29021132E-04  4.94626322E-04 -3.12424125E-03
 -1.87757169E-01 -5.54294888E-03 -6.25128829E-05  7.20676187E-04 -3.56320780E-04
 -5.55728754E-05 -2.53636837E-04  1.36143315E-04 -1.91997944E-05 -1.21218869E-04
 -9.77661415E-05 -2.94948227E-04  7.97905643E-05 -1.08924084E-06  1.92099820E-04
 -1.57463801E-04  4.82566586E-04  3.09855210E-04 -5.55639864E-04 -2.14261861E-04
 -3.84439400E-03 -1.85905843E-03  3.32661308E-03  1.25504076E-03  2.15093361E-03
  5.18135330E-04 -9.10688526E-04 -2.66215359E-04 -8.42785189E-04  5.74266929E-01
  1.65188427E-02  1.90157237E-03  8.21273450E-05  9.17269322E-04 -1.80741129E-04
 -5.47415078E-04 -7.43164637E-05  1.19500662E-04  3.60020974E-04 -1.69068171E-04
  5.18381178E-04  3.46041008E-04  5.89226281E-04 -2.29318031E-04 -4.12394624E-03
 -2.06882209E-03 -3.52868421E-03  1.34291418E-03  2.30841219E-03  5.59311016E-04
  9.68386724E-04 -6.08868180E-04  6.94427733E-04 -1.94061603E-04 -5.87690896E-04
 -7.14763545E-05 -1.33584888E-04  3.86304558E-04  6.10813997E-01  1.76010233E-02
 -1.05506066E-03  1.72346029E-03  9.87759750E-04 -1.40089007E-04 -5.72548103E-04
 -1.30638630E-04 -2.45589128E-04 -3.05498533E-04 -1.32332004E-04 -5.37599274E-04
 -1.37661490E-04  2.20083312E-04 -2.88700128E-04 -1.62965534E-04  4.99544413E-04
 -6.55845591E-04 -7.68599392E-05 -2.21377157E-04 -3.97695858E-03  3.92760893E-03
  4.53831866E-04  1.29657303E-03  2.22561925E-03 -1.07754103E-03 -1.09139689E-04
  9.07680636E-04 -2.01971726E-04  5.33700877E-01  1.53176828E-02 -8.46821940E-04
 -1.55751496E-03  8.38583485E-04 -1.36007767E-04 -5.54153039E-04  2.68317746E-04
  6.52053025E-06 -2.96656412E-04 -1.87046230E-04 -5.66492043E-04  1.45773506E-04
  4.30072723E-06  3.72470092E-04 -1.82907795E-04  4.09742748E-04 -1.70164589E-04
  2.74444683E-04  1.21399239E-03 -6.32178579E-03  1.18848060E-03 -1.91633731E-03
 -8.50506559E-03 -4.88817452E-03  1.34273945E-03 -2.16630770E-03  1.14050818E-04
  2.31298913E-04  1.90314876E-04 -3.10656732E-04 -1.21419892E-04 -3.00885833E-04
 -2.02630067E-05  9.91380664E-01  2.87372146E-02  9.54986820E-04 -1.53914633E-03
 -6.57710726E-03  8.72532404E-06 -2.13876383E-05  9.35423433E-06  8.50045410E-06
 -5.75220075E-05  2.78382751E-04 -5.54460867E-05 -6.61758402E-05  3.79802291E-04
  2.07858988E-04 -5.94643510E-05 -7.73583471E-06 -3.26710409E-05  2.80314124E-06
 -3.87564222E-02 -1.13362299E-03 -3.31772027E-05 -7.13597343E-05  2.63632553E-04
 -2.81238551E-05  4.89804610E-05 -3.04887415E-06  1.68202765E-05  6.78825067E-06
 -4.88034511E-05 -3.00115786E-06 -1.12271487E-05 -1.75480485E-06  2.67453093E-06
 -5.57439355E-03 -6.35496945E-04 -6.76060934E-05  1.08687194E-04 -3.81772092E-04
  1.27749991E-05 -3.04987481E-05 -1.88504217E-05 -4.73413383E-06 -8.43930607E-05
  4.17857017E-04  1.33374267E-04  2.14311655E-05  5.67565451E-04  3.15548115E-04
  8.79899371E-05  5.05232816E-05  2.78431496E-05 -2.34137979E-05  1.85784225E-04
 -3.03232192E-04  3.27602837E-04 -3.06040271E-05 -1.96988296E-05  6.82290953E-05
  1.03752058E-05  4.00464504E-06  9.00752179E-06  1.07994364E-05 -6.05275005E-02
 -1.76491206E-03  1.18607908E-04 -6.56108420E-07  4.08194763E-04 -8.71856263E-06
  1.78125151E-05 -1.36184468E-05  1.34962831E-05  5.82322443E-05 -3.22975239E-04
  8.37490339E-05 -9.98069059E-05 -4.29605137E-04 -2.56643573E-04  1.50345588E-04
 -1.44844432E-04  2.63244439E-05 -7.81578933E-06 -2.21894678E-05  3.92843874E-05
  1.34735820E-05 -5.15539801E-05  6.13645660E-06  5.52203986E-02  1.59117331E-03
  4.53386941E-05 -8.20523437E-05 -3.60284877E-04  2.48116960E-05 -5.76229435E-05