 Entering Link 1 = D:\G09W\l1.exe PID=     15284.
  
 Copyright (c) 1988,1990,1992,1993,1995,1998,2003,2009,2011,
            Gaussian, Inc.  All Rights Reserved.
  
 This is part of the Gaussian(R) 09 program.  It is based on
 the Gaussian(R) 03 system (copyright 2003, Gaussian, Inc.),
 the Gaussian(R) 98 system (copyright 1998, Gaussian, Inc.),
 the Gaussian(R) 94 system (copyright 1995, Gaussian, Inc.),
 the Gaussian 92(TM) system (copyright 1992, Gaussian, Inc.),
 the Gaussian 90(TM) system (copyright 1990, Gaussian, Inc.),
 the Gaussian 88(TM) system (copyright 1988, Gaussian, Inc.),
 the Gaussian 86(TM) system (copyright 1986, Carnegie Mellon
 University), and the Gaussian 82(TM) system (copyright 1983,
 Carnegie Mellon University). Gaussian is a federally registered
 trademark of Gaussian, Inc.
  
 This software contains proprietary and confidential information,
 including trade secrets, belonging to Gaussian, Inc.
  
 This software is provided under written license and may be
 used, copied, transmitted, or stored only in accord with that
 written license.
  
 The following legend is applicable only to US Government
 contracts under FAR:
  
                    RESTRICTED RIGHTS LEGEND
  
 Use, reproduction and disclosure by the US Government is
 subject to restrictions as set forth in subparagraphs (a)
 and (c) of the Commercial Computer Software - Restricted
 Rights clause in FAR 52.227-19.
  
 Gaussian, Inc.
 340 Quinnipiac St., Bldg. 40, Wallingford CT 06492
  
  
 ---------------------------------------------------------------
 Warning -- This program may not be used in any manner that
 competes with the business of Gaussian, Inc. or will provide
 assistance to any competitor of Gaussian, Inc.  The licensee
 of this program is prohibited from giving any competitor of
 Gaussian, Inc. access to this program.  By using this program,
 the user acknowledges that Gaussian, Inc. is engaged in the
 business of creating and licensing software in the field of
 computational chemistry and represents and warrants to the
 licensee that it is not a competitor of Gaussian, Inc. and that
 it will not use this program in any manner prohibited above.
 ---------------------------------------------------------------
  

 Cite this work as:
 Gaussian 09, Revision C.01,
 M. J. Frisch, G. W. Trucks, H. B. Schlegel, G. E. Scuseria, 
 M. A. Robb, J. R. Cheeseman, G. Scalmani, V. Barone, B. Mennucci, 
 G. A. Petersson, H. Nakatsuji, M. Caricato, X. Li, H. P. Hratchian, 
 A. F. Izmaylov, J. Bloino, G. Zheng, J. L. Sonnenberg, M. Hada, 
 M. Ehara, K. Toyota, R. Fukuda, J. Hasegawa, M. Ishida, T. Nakajima, 
 Y. Honda, O. Kitao, H. Nakai, T. Vreven, J. A. Montgomery, Jr., 
 J. E. Peralta, F. Ogliaro, M. Bearpark, J. J. Heyd, E. Brothers, 
 K. N. Kudin, V. N. Staroverov, T. Keith, R. Kobayashi, J. Normand, 
 K. Raghavachari, A. Rendell, J. C. Burant, S. S. Iyengar, J. Tomasi, 
 M. Cossi, N. Rega, J. M. Millam, M. Klene, J. E. Knox, J. B. Cross, 
 V. Bakken, C. Adamo, J. Jaramillo, R. Gomperts, R. E. Stratmann, 
 O. Yazyev, A. J. Austin, R. Cammi, C. Pomelli, J. W. Ochterski, 
 R. L. Martin, K. Morokuma, V. G. Zakrzewski, G. A. Voth, 
 P. Salvador, J. J. Dannenberg, S. Dapprich, A. D. Daniels, 
 O. Farkas, J. B. Foresman, J. V. Ortiz, J. Cioslowski, 
 and D. J. Fox, Gaussian, Inc., Wallingford CT, 2010.
 
 ******************************************
 Gaussian 09:  IA32W-G09RevC.01 23-Sep-2011
                09-Dec-2021 
 ******************************************
 %chk=C:\Users\shiduyule\Desktop\HPO3.chk
 -------------------------------------------
 # opt freq b3lyp/6-31g(d) geom=connectivity
 -------------------------------------------
 1/14=-1,18=20,19=15,26=3,38=1,57=2/1,3;
 2/9=110,12=2,17=6,18=5,40=1/2;
 3/5=1,6=6,7=1,11=2,16=1,25=1,30=1,71=1,74=-5/1,2,3;
 4//1;
 5/5=2,38=5/2;
 6/7=2,8=2,9=2,10=2,28=1/1;
 7//1,2,3,16;
 1/14=-1,18=20,19=15/3(2);
 2/9=110/2;
 99//99;
 2/9=110/2;
 3/5=1,6=6,7=1,11=2,16=1,25=1,30=1,71=1,74=-5/1,2,3;
 4/5=5,16=3/1;
 5/5=2,38=5/2;
 7//1,2,3,16;
 1/14=-1,18=20,19=15/3(-5);
 2/9=110/2;
 6/7=2,8=2,9=2,10=2,19=2,28=1/1;
 99/9=1/99;
 ----
 HPO3
 ----
 Charge =  0 Multiplicity = 1
 Symbolic Z-Matrix:
 P                    -1.36444   0.00115  -0.11968 
 O                     0.34556   0.00115  -0.11968 
 O                    -2.21944  -1.47975  -0.11968 
 O                    -2.21944   1.48205  -0.11968 
 H                    -2.38119   1.7587    0.78526 
 

 GradGradGradGradGradGradGradGradGradGradGradGradGradGradGradGradGradGrad
 Berny optimization.
 Initialization pass.
                           ----------------------------
                           !    Initial Parameters    !
                           ! (Angstroms and Degrees)  !
 --------------------------                            --------------------------
 ! Name  Definition              Value          Derivative Info.                !
 --------------------------------------------------------------------------------
 ! R1    R(1,2)                  1.71           estimate D2E/DX2                !
 ! R2    R(1,3)                  1.71           estimate D2E/DX2                !
 ! R3    R(1,4)                  1.71           estimate D2E/DX2                !
 ! R4    R(4,5)                  0.96           estimate D2E/DX2                !
 ! A1    A(2,1,3)              120.0            estimate D2E/DX2                !
 ! A2    A(2,1,4)              120.0            estimate D2E/DX2                !
 ! A3    A(3,1,4)              120.0            estimate D2E/DX2                !
 ! A4    A(1,4,5)              109.5            estimate D2E/DX2                !
 ! D1    D(2,1,3,4)            180.0            estimate D2E/DX2                !
 ! D2    D(2,1,4,5)            -90.1111         estimate D2E/DX2                !
 ! D3    D(3,1,4,5)             89.8889         estimate D2E/DX2                !
 --------------------------------------------------------------------------------
 Trust Radius=3.00D-01 FncErr=1.00D-07 GrdErr=1.00D-06
 Number of steps in this run=     21 maximum allowed number of steps=    100.
 GradGradGradGradGradGradGradGradGradGradGradGradGradGradGradGradGradGrad

                          Input orientation:                          
 ---------------------------------------------------------------------
 Center     Atomic      Atomic             Coordinates (Angstroms)
 Number     Number       Type             X           Y           Z
 ---------------------------------------------------------------------
      1         15           0       -1.364443    0.001151   -0.119679
      2          8           0        0.345557    0.001151   -0.119679
      3          8           0       -2.219443   -1.479753   -0.119679
      4          8           0       -2.219443    1.482054   -0.119679
      5          1           0       -2.381190    1.758699    0.785255
 ---------------------------------------------------------------------
                    Distance matrix (angstroms):
                    1          2          3          4          5
     1  P    0.000000
     2  O    1.710000   0.000000
     3  O    1.710000   2.961807   0.000000
     4  O    1.710000   2.961807   2.961807   0.000000
     5  H    2.222983   3.367941   3.366398   0.960000   0.000000
 Stoichiometry    HO3P
 Framework group  C1[X(HO3P)]
 Deg. of freedom     9
 Full point group                 C1      NOp   1
 Largest Abelian subgroup         C1      NOp   1
 Largest concise Abelian subgroup C1      NOp   1
                         Standard orientation:                         
 ---------------------------------------------------------------------
 Center     Atomic      Atomic             Coordinates (Angstroms)
 Number     Number       Type             X           Y           Z
 ---------------------------------------------------------------------
      1         15           0       -0.051761    0.000000   -0.020233
      2          8           0       -0.907110   -1.480164    0.019678
      3          8           0       -0.904553    1.481642    0.019559
      4          8           0        1.656380   -0.001478   -0.099936
      5          1           0        2.018667    0.000000    0.789078
 ---------------------------------------------------------------------
 Rotational constants (GHZ):      7.1254895      6.7317761      3.4983930
 Standard basis: 6-31G(d) (6D, 7F)
 There are    66 symmetry adapted basis functions of A   symmetry.
 Integral buffers will be    262144 words long.
 Raffenetti 2 integral format.
 Two-electron integral symmetry is turned on.
    66 basis functions,   140 primitive gaussians,    66 cartesian basis functions
    20 alpha electrons       20 beta electrons
       nuclear repulsion energy       156.2048550315 Hartrees.
 NAtoms=    5 NActive=    5 NUniq=    5 SFac= 1.00D+00 NAtFMM=   60 NAOKFM=F Big=F
 One-electron integrals computed using PRISM.
 NBasis=    66 RedAO= T  NBF=    66
 NBsUse=    66 1.00D-06 NBFU=    66
 Harris functional with IExCor=  402 diagonalized for initial guess.
 ExpMin= 9.98D-02 ExpMax= 1.94D+04 ExpMxC= 2.91D+03 IAcc=2 IRadAn=         4 AccDes= 0.00D+00
 HarFok:  IExCor=  402 AccDes= 0.00D+00 IRadAn=         4 IDoV= 1
 ScaDFX=  1.000000  1.000000  1.000000  1.000000
 FoFCou: FMM=F IPFlag=           0 FMFlag=      100000 FMFlg1=           0
         NFxFlg=           0 DoJE=T BraDBF=F KetDBF=T FulRan=T
         Omega=  0.000000  0.000000  1.000000  0.000000  0.000000 ICntrl=     500 IOpCl=  0
         NMat0=    1 NMatS0=    1 NMatT0=    0 NMatD0=    1 NMtDS0=    0 NMtDT0=    0
         I1Cent=           4 NGrid=           0.
 Petite list used in FoFCou.
 Initial guess orbital symmetries:
       Occupied  (A) (A) (A) (A) (A) (A) (A) (A) (A) (A) (A) (A)
                 (A) (A) (A) (A) (A) (A) (A) (A)
       Virtual   (A) (A) (A) (A) (A) (A) (A) (A) (A) (A) (A) (A)
                 (A) (A) (A) (A) (A) (A) (A) (A) (A) (A) (A) (A)
                 (A) (A) (A) (A) (A) (A) (A) (A) (A) (A) (A) (A)
                 (A) (A) (A) (A) (A) (A) (A) (A) (A) (A)
 The electronic state of the initial guess is 1-A.
 Requested convergence on RMS density matrix=1.00D-08 within 128 cycles.
 Requested convergence on MAX density matrix=1.00D-06.
 Requested convergence on             energy=1.00D-06.
 No special actions if energy rises.
 Keep R1 ints in memory in canonical form, NReq=3398679.
 Integral accuracy reduced to 1.0D-05 until final iterations.
 EnCoef did     5 forward-backward iterations
 Initial convergence to 1.0D-05 achieved.  Increase integral accuracy.
 SCF Done:  E(RB3LYP) =  -567.544639109     A.U. after   18 cycles
             Convg  =    0.7725D-08             -V/T =  2.0074

 **********************************************************************

            Population analysis using the SCF density.

 **********************************************************************

 Orbital symmetries:
       Occupied  (A) (A) (A) (A) (A) (A) (A) (A) (A) (A) (A) (A)
                 (A) (A) (A) (A) (A) (A) (A) (A)
       Virtual   (A) (A) (A) (A) (A) (A) (A) (A) (A) (A) (A) (A)
                 (A) (A) (A) (A) (A) (A) (A) (A) (A) (A) (A) (A)
                 (A) (A) (A) (A) (A) (A) (A) (A) (A) (A) (A) (A)
                 (A) (A) (A) (A) (A) (A) (A) (A) (A) (A)
 The electronic state is 1-A.
 Alpha  occ. eigenvalues --  -77.29327 -19.26325 -19.20400 -19.20399  -6.73753
 Alpha  occ. eigenvalues --   -4.90332  -4.90023  -4.89750  -1.10453  -0.97377
 Alpha  occ. eigenvalues --   -0.94305  -0.65899  -0.53436  -0.46243  -0.44780
 Alpha  occ. eigenvalues --   -0.38959  -0.37691  -0.34120  -0.31521  -0.30803
 Alpha virt. eigenvalues --   -0.13715  -0.12799   0.02692   0.06349   0.09866
 Alpha virt. eigenvalues --    0.21836   0.26898   0.30672   0.32167   0.51212
 Alpha virt. eigenvalues --    0.55840   0.68254   0.71761   0.72561   0.80856
 Alpha virt. eigenvalues --    0.89494   0.89696   0.91916   0.94239   0.94746
 Alpha virt. eigenvalues --    0.97698   0.99599   1.01494   1.10986   1.29910
 Alpha virt. eigenvalues --    1.32072   1.33305   1.65044   1.70553   1.72539
 Alpha virt. eigenvalues --    1.79283   1.79513   1.79861   1.80088   1.88207
 Alpha virt. eigenvalues --    1.91170   1.96552   2.01812   2.20971   2.36863
 Alpha virt. eigenvalues --    2.46263   2.49297   3.47902   3.50310   3.60688
 Alpha virt. eigenvalues --    3.60738
          Condensed to atoms (all electrons):
              1          2          3          4          5
     1  P   13.045879   0.352054   0.352053   0.194891  -0.012555
     2  O    0.352054   8.140558  -0.017585  -0.015467  -0.000459
     3  O    0.352053  -0.017585   8.140611  -0.015472  -0.000462
     4  O    0.194891  -0.015467  -0.015472   8.207068   0.239599
     5  H   -0.012555  -0.000459  -0.000462   0.239599   0.312688
 Mulliken atomic charges:
              1
     1  P    1.067677
     2  O   -0.459101
     3  O   -0.459145
     4  O   -0.610619
     5  H    0.461188
 Sum of Mulliken atomic charges =   0.00000
 Mulliken charges with hydrogens summed into heavy atoms:
              1
     1  P    1.067677
     2  O   -0.459101
     3  O   -0.459145
     4  O   -0.149431
 Sum of Mulliken charges with hydrogens summed into heavy atoms =   0.00000
 Electronic spatial extent (au):  <R**2>=            334.2872
 Charge=              0.0000 electrons
 Dipole moment (field-independent basis, Debye):
    X=              3.6146    Y=             -0.0001    Z=              1.4979  Tot=              3.9127
 Quadrupole moment (field-independent basis, Debye-Ang):
   XX=            -28.3730   YY=            -35.6792   ZZ=            -25.3519
   XY=              0.0017   XZ=              3.8468   YZ=              0.0006
 Traceless Quadrupole moment (field-independent basis, Debye-Ang):
   XX=              1.4283   YY=             -5.8778   ZZ=              4.4495
   XY=              0.0017   XZ=              3.8468   YZ=              0.0006
 Octapole moment (field-independent basis, Debye-Ang**2):
  XXX=             12.0046  YYY=             -0.0117  ZZZ=              1.5179  XYY=              4.9655
  XXY=              0.0149  XXZ=              8.0778  XZZ=              3.9080  YZZ=             -0.0009
  YYZ=              0.1920  XYZ=              0.0008
 Hexadecapole moment (field-independent basis, Debye-Ang**3):
 XXXX=           -162.3899 YYYY=           -183.7144 ZZZZ=            -24.6944 XXXY=              0.0112
 XXXZ=             17.5904 YYYX=             -0.0015 YYYZ=              0.0001 ZZZX=              3.8515
 ZZZY=              0.0006 XXYY=            -61.7932 XXZZ=            -28.7003 YYZZ=            -33.3774
 XXYZ=              0.0003 YYXZ=              0.5271 ZZXY=             -0.0005
 N-N= 1.562048550315D+02 E-N=-1.655976923312D+03  KE= 5.633693198808D+02
 Calling FoFJK, ICntrl=      2127 FMM=F ISym2X=0 I1Cent= 0 IOpClX= 0 NMat=1 NMatS=1 NMatT=0.
 ***** Axes restored to original set *****
 -------------------------------------------------------------------
 Center     Atomic                   Forces (Hartrees/Bohr)
 Number     Number              X              Y              Z
 -------------------------------------------------------------------
      1       15           0.057956916   -0.100391581    0.000261572
      2        8          -0.142425331    0.012518100   -0.000205860
      3        8           0.060372598    0.129596807   -0.000195396
      4        8           0.027406371   -0.047360165   -0.016413317
      5        1          -0.003310554    0.005636838    0.016553000
 -------------------------------------------------------------------
 Cartesian Forces:  Max     0.142425331 RMS     0.062128743

 GradGradGradGradGradGradGradGradGradGradGradGradGradGradGradGradGradGrad
 Berny optimization.
 Internal  Forces:  Max     0.142425650 RMS     0.063460092
 Search for a local minimum.
 Step number   1 out of a maximum of   21
 All quantities printed in internal units (Hartrees-Bohrs-Radians)
 Mixed Optimization -- RFO/linear search
 Second derivative matrix not updated -- first step.
 The second derivative matrix:
                          R1        R2        R3        R4        A1
           R1           0.34713
           R2           0.00000   0.34713
           R3           0.00000   0.00000   0.34713
           R4           0.00000   0.00000   0.00000   0.55473
           A1           0.00000   0.00000   0.00000   0.00000   0.25000
           A2           0.00000   0.00000   0.00000   0.00000   0.00000
           A3           0.00000   0.00000   0.00000   0.00000   0.00000
           A4           0.00000   0.00000   0.00000   0.00000   0.00000
           D1           0.00000   0.00000   0.00000   0.00000   0.00000
           D2           0.00000   0.00000   0.00000   0.00000   0.00000
           D3           0.00000   0.00000   0.00000   0.00000   0.00000
                          A2        A3        A4        D1        D2
           A2           0.25000
           A3           0.00000   0.25000
           A4           0.00000   0.00000   0.16000
           D1           0.00000   0.00000   0.00000   0.01958
           D2           0.00000   0.00000   0.00000   0.00000   0.01958
           D3           0.00000   0.00000   0.00000   0.00000   0.00000
                          D3
           D3           0.01958
 ITU=  0
     Eigenvalues ---    0.01958   0.01958   0.16000   0.25000   0.25000
     Eigenvalues ---    0.34713   0.34713   0.34713   0.55473
 RFO step:  Lambda=-9.96159534D-02 EMin= 1.95780422D-02
 Linear search not attempted -- first point.
 Maximum step size (   0.300) exceeded in Quadratic search.
    -- Step size scaled by   0.633
 Iteration  1 RMS(Cart)=  0.09046498 RMS(Int)=  0.00171390
 Iteration  2 RMS(Cart)=  0.00229246 RMS(Int)=  0.00001541
 Iteration  3 RMS(Cart)=  0.00000203 RMS(Int)=  0.00001528
 Iteration  4 RMS(Cart)=  0.00000000 RMS(Int)=  0.00001528
 Variable       Old X    -DE/DX   Delta X   Delta X   Delta X     New X
                                 (Linear)    (Quad)   (Total)
    R1        3.23143  -0.14243   0.00000  -0.20182  -0.20182   3.02961
    R2        3.23143  -0.14242   0.00000  -0.20181  -0.20181   3.02962
    R3        3.23143  -0.04818   0.00000  -0.06828  -0.06828   3.16316
    R4        1.81414   0.01779   0.00000   0.01721   0.01721   1.83135
    A1        2.09440   0.02696   0.00000   0.04882   0.04882   2.14322
    A2        2.09440  -0.01349   0.00000  -0.02442  -0.02442   2.06997
    A3        2.09440  -0.01348   0.00000  -0.02440  -0.02440   2.06999
    A4        1.91114   0.00115   0.00000   0.00280   0.00280   1.91393
    D1        3.14159   0.00038   0.00000   0.00203   0.00206  -3.13953
    D2       -1.57274  -0.00021   0.00000  -0.00109  -0.00106  -1.57380
    D3        1.56886   0.00018   0.00000   0.00094   0.00091   1.56977
         Item               Value     Threshold  Converged?
 Maximum Force            0.142426     0.000450     NO 
 RMS     Force            0.063460     0.000300     NO 
 Maximum Displacement     0.180905     0.001800     NO 
 RMS     Displacement     0.091033     0.001200     NO 
 Predicted change in Energy=-4.758406D-02
 GradGradGradGradGradGradGradGradGradGradGradGradGradGradGradGradGradGrad

                          Input orientation:                          
 ---------------------------------------------------------------------
 Center     Atomic      Atomic             Coordinates (Angstroms)
 Number     Number       Type             X           Y           Z
 ---------------------------------------------------------------------
      1         15           0       -1.352892   -0.018851   -0.117286
      2          8           0        0.249826    0.020275   -0.112644
      3          8           0       -2.188171   -1.387265   -0.112621
      4          8           0       -2.189767    1.430738   -0.130463
      5          1           0       -2.357957    1.718405    0.779553
 ---------------------------------------------------------------------
                    Distance matrix (angstroms):
                    1          2          3          4          5
     1  P    0.000000
     2  O    1.603202   0.000000
     3  O    1.603206   2.815137   0.000000
     4  O    1.673870   2.818038   2.818059   0.000000
     5  H    2.198303   3.237313   3.235736   0.969108   0.000000
 Stoichiometry    HO3P
 Framework group  C1[X(HO3P)]
 Deg. of freedom     9
 Full point group                 C1      NOp   1
 Largest Abelian subgroup         C1      NOp   1
 Largest concise Abelian subgroup C1      NOp   1
                         Standard orientation:                         
 ---------------------------------------------------------------------
 Center     Atomic      Atomic             Coordinates (Angstroms)
 Number     Number       Type             X           Y           Z
 ---------------------------------------------------------------------
      1         15           0       -0.078813    0.000022   -0.018282
      2          8           0       -0.846529   -1.406908    0.019365
      3          8           0       -0.844201    1.408228    0.019233
      4          8           0        1.592897   -0.001384   -0.103270
      5          1           0        1.964862    0.000185    0.791610
 ---------------------------------------------------------------------
 Rotational constants (GHZ):      7.8769023      7.4000647      3.8609824
 Standard basis: 6-31G(d) (6D, 7F)
 There are    66 symmetry adapted basis functions of A   symmetry.
 Integral buffers will be    262144 words long.
 Raffenetti 2 integral format.
 Two-electron integral symmetry is turned on.
    66 basis functions,   140 primitive gaussians,    66 cartesian basis functions
    20 alpha electrons       20 beta electrons
       nuclear repulsion energy       163.8164112287 Hartrees.
 NAtoms=    5 NActive=    5 NUniq=    5 SFac= 1.00D+00 NAtFMM=   60 NAOKFM=F Big=F
 One-electron integrals computed using PRISM.
 NBasis=    66 RedAO= T  NBF=    66
 NBsUse=    66 1.00D-06 NBFU=    66
 Initial guess read from the read-write file.
 B after Tr=     0.000000    0.000000    0.000000
         Rot=    1.000000    0.000000    0.000000    0.000000 Ang=   0.00 deg.
 Initial guess orbital symmetries:
       Occupied  (A) (A) (A) (A) (A) (A) (A) (A) (A) (A) (A) (A)
                 (A) (A) (A) (A) (A) (A) (A) (A)
       Virtual   (A) (A) (A) (A) (A) (A) (A) (A) (A) (A) (A) (A)
                 (A) (A) (A) (A) (A) (A) (A) (A) (A) (A) (A) (A)
                 (A) (A) (A) (A) (A) (A) (A) (A) (A) (A) (A) (A)
                 (A) (A) (A) (A) (A) (A) (A) (A) (A) (A)
 Harris functional with IExCor=  402 diagonalized for initial guess.
 ExpMin= 9.98D-02 ExpMax= 1.94D+04 ExpMxC= 2.91D+03 IAcc=2 IRadAn=         4 AccDes= 0.00D+00
 HarFok:  IExCor=  402 AccDes= 0.00D+00 IRadAn=         4 IDoV= 1
 ScaDFX=  1.000000  1.000000  1.000000  1.000000
 FoFCou: FMM=F IPFlag=           0 FMFlag=      100000 FMFlg1=           0
         NFxFlg=           0 DoJE=T BraDBF=F KetDBF=T FulRan=T
         Omega=  0.000000  0.000000  1.000000  0.000000  0.000000 ICntrl=     500 IOpCl=  0
         NMat0=    1 NMatS0=    1 NMatT0=    0 NMatD0=    1 NMtDS0=    0 NMtDT0=    0
         I1Cent=           4 NGrid=           0.
 Petite list used in FoFCou.
 Requested convergence on RMS density matrix=1.00D-08 within 128 cycles.
 Requested convergence on MAX density matrix=1.00D-06.
 Requested convergence on             energy=1.00D-06.
 No special actions if energy rises.
 Keep R1 ints in memory in canonical form, NReq=3398679.
 Integral accuracy reduced to 1.0D-05 until final iterations.
 Initial convergence to 1.0D-05 achieved.  Increase integral accuracy.
 SCF Done:  E(RB3LYP) =  -567.601216873     A.U. after   14 cycles
             Convg  =    0.7387D-08             -V/T =  2.0069
 Calling FoFJK, ICntrl=      2127 FMM=F ISym2X=0 I1Cent= 0 IOpClX= 0 NMat=1 NMatS=1 NMatT=0.
 ***** Axes restored to original set *****
 -------------------------------------------------------------------
 Center     Atomic                   Forces (Hartrees/Bohr)
 Number     Number              X              Y              Z
 -------------------------------------------------------------------
      1       15           0.045801284   -0.079331381    0.000788268
      2        8          -0.107849298    0.009967386   -0.000895696
      3        8           0.045294170    0.098375107   -0.000883255
      4        8           0.019027892   -0.032882377   -0.005297744
      5        1          -0.002274048    0.003871264    0.006288426
 -------------------------------------------------------------------
 Cartesian Forces:  Max     0.107849298 RMS     0.047176655

 GradGradGradGradGradGradGradGradGradGradGradGradGradGradGradGradGradGrad
 Berny optimization.
 Using GEDIIS/GDIIS optimizer.
 Internal  Forces:  Max     0.107575976 RMS     0.047966173
 Search for a local minimum.
 Step number   2 out of a maximum of   21
 All quantities printed in internal units (Hartrees-Bohrs-Radians)
 Mixed Optimization -- RFO/linear search
 Update second derivatives using D2CorX and points    1    2
 DE= -5.66D-02 DEPred=-4.76D-02 R= 1.19D+00
 SS=  1.41D+00  RLast= 3.00D-01 DXNew= 5.0454D-01 9.0003D-01
 Trust test= 1.19D+00 RLast= 3.00D-01 DXMaxT set to 5.05D-01
 The second derivative matrix:
                          R1        R2        R3        R4        A1
           R1           0.26770
           R2          -0.07942   0.26772
           R3          -0.02032  -0.02032   0.34302
           R4          -0.00187  -0.00188  -0.00258   0.55876
           A1           0.02417   0.02417   0.00789  -0.00274   0.24534
           A2          -0.01209  -0.01209  -0.00395   0.00137   0.00233
           A3          -0.01209  -0.01209  -0.00395   0.00137   0.00233
           A4           0.00695   0.00695   0.00284  -0.00190  -0.00044
           D1           0.00124   0.00124   0.00051  -0.00035  -0.00007
           D2          -0.00054  -0.00054  -0.00022   0.00015   0.00003
           D3           0.00051   0.00051   0.00021  -0.00014  -0.00003
                          A2        A3        A4        D1        D2
           A2           0.24883
           A3          -0.00117   0.24884
           A4           0.00022   0.00022   0.16044
           D1           0.00003   0.00003   0.00009   0.01959
           D2          -0.00001  -0.00001  -0.00004  -0.00001   0.01958
           D3           0.00001   0.00001   0.00004   0.00001   0.00000
                          D3
           D3           0.01958
 ITU=  1  0
 Use linear search instead of GDIIS.
     Eigenvalues ---    0.01957   0.01958   0.15123   0.16977   0.25000
     Eigenvalues ---    0.26546   0.34713   0.34821   0.55886
 RFO step:  Lambda=-1.08717504D-03 EMin= 1.95708154D-02
 Quartic linear search produced a step of  1.30596.
 Iteration  1 RMS(Cart)=  0.09552869 RMS(Int)=  0.03211341
 Iteration  2 RMS(Cart)=  0.03166075 RMS(Int)=  0.00076085
 Iteration  3 RMS(Cart)=  0.00009010 RMS(Int)=  0.00075702
 Iteration  4 RMS(Cart)=  0.00000006 RMS(Int)=  0.00075702
 Variable       Old X    -DE/DX   Delta X   Delta X   Delta X     New X
                                 (Linear)    (Quad)   (Total)
    R1        3.02961  -0.10758  -0.26357  -0.00715  -0.27072   2.75890
    R2        3.02962  -0.10757  -0.26356  -0.00713  -0.27068   2.75894
    R3        3.16316  -0.03351  -0.08917   0.01669  -0.07248   3.09068
    R4        1.83135   0.00745   0.02248  -0.01981   0.00266   1.83401
    A1        2.14322   0.02544   0.06376   0.03534   0.09878   2.24200
    A2        2.06997  -0.01273  -0.03190  -0.01770  -0.04984   2.02013
    A3        2.06999  -0.01272  -0.03187  -0.01771  -0.04985   2.02014
    A4        1.91393   0.00376   0.00365   0.03934   0.04299   1.95692
    D1       -3.13953   0.00089   0.00269   0.04237   0.04634  -3.09319
    D2       -1.57380  -0.00042  -0.00139  -0.02028  -0.02018  -1.59397
    D3        1.56977   0.00038   0.00119   0.02022   0.01992   1.58969
         Item               Value     Threshold  Converged?
 Maximum Force            0.107576     0.000450     NO 
 RMS     Force            0.047966     0.000300     NO 
 Maximum Displacement     0.232492     0.001800     NO 
 RMS     Displacement     0.118825     0.001200     NO 
 Predicted change in Energy=-5.106648D-02
 GradGradGradGradGradGradGradGradGradGradGradGradGradGradGradGradGradGrad

                          Input orientation:                          
 ---------------------------------------------------------------------
 Center     Atomic      Atomic             Coordinates (Angstroms)
 Number     Number       Type             X           Y           Z
 ---------------------------------------------------------------------
      1         15           0       -1.329083   -0.060063   -0.098348
      2          8           0        0.126796    0.047702   -0.113903
      3          8           0       -2.150441   -1.266973   -0.113839
      4          8           0       -2.146641    1.356107   -0.129638
      5          1           0       -2.339593    1.686529    0.762266
 ---------------------------------------------------------------------
                    Distance matrix (angstroms):
                    1          2          3          4          5
     1  P    0.000000
     2  O    1.459945   0.000000
     3  O    1.459966   2.629483   0.000000
     4  O    1.635518   2.623106   2.623130   0.000000
     5  H    2.193712   3.088123   3.086505   0.970516   0.000000
 Stoichiometry    HO3P
 Framework group  C1[X(HO3P)]
 Deg. of freedom     9
 Full point group                 C1      NOp   1
 Largest Abelian subgroup         C1      NOp   1
 Largest concise Abelian subgroup C1      NOp   1
                         Standard orientation:                         
 ---------------------------------------------------------------------
 Center     Atomic      Atomic             Coordinates (Angstroms)
 Number     Number       Type             X           Y           Z
 ---------------------------------------------------------------------
      1         15           0       -0.123949    0.000064   -0.003227
      2          8           0       -0.759759   -1.314082    0.011157
      3          8           0       -0.757342    1.315400    0.011014
      4          8           0        1.507992   -0.001454   -0.111322
      5          1           0        1.932112    0.000126    0.761616
 ---------------------------------------------------------------------
 Rotational constants (GHZ):      9.0184679      8.4587740      4.4215275
 Standard basis: 6-31G(d) (6D, 7F)
 There are    66 symmetry adapted basis functions of A   symmetry.
 Integral buffers will be    262144 words long.
 Raffenetti 2 integral format.
 Two-electron integral symmetry is turned on.
    66 basis functions,   140 primitive gaussians,    66 cartesian basis functions
    20 alpha electrons       20 beta electrons
       nuclear repulsion energy       175.2419899976 Hartrees.
 NAtoms=    5 NActive=    5 NUniq=    5 SFac= 1.00D+00 NAtFMM=   60 NAOKFM=F Big=F
 One-electron integrals computed using PRISM.
 NBasis=    66 RedAO= T  NBF=    66
 NBsUse=    66 1.00D-06 NBFU=    66
 Initial guess read from the read-write file.
 B after Tr=     0.000000    0.000000    0.000000
         Rot=    1.000000    0.000000    0.000000    0.000000 Ang=   0.00 deg.
 Initial guess orbital symmetries:
       Occupied  (A) (A) (A) (A) (A) (A) (A) (A) (A) (A) (A) (A)
                 (A) (A) (A) (A) (A) (A) (A) (A)
       Virtual   (A) (A) (A) (A) (A) (A) (A) (A) (A) (A) (A) (A)
                 (A) (A) (A) (A) (A) (A) (A) (A) (A) (A) (A) (A)
                 (A) (A) (A) (A) (A) (A) (A) (A) (A) (A) (A) (A)
                 (A) (A) (A) (A) (A) (A) (A) (A) (A) (A)
 Harris functional with IExCor=  402 diagonalized for initial guess.
 ExpMin= 9.98D-02 ExpMax= 1.94D+04 ExpMxC= 2.91D+03 IAcc=2 IRadAn=         4 AccDes= 0.00D+00
 HarFok:  IExCor=  402 AccDes= 0.00D+00 IRadAn=         4 IDoV= 1
 ScaDFX=  1.000000  1.000000  1.000000  1.000000
 FoFCou: FMM=F IPFlag=           0 FMFlag=      100000 FMFlg1=           0
         NFxFlg=           0 DoJE=T BraDBF=F KetDBF=T FulRan=T
         Omega=  0.000000  0.000000  1.000000  0.000000  0.000000 ICntrl=     500 IOpCl=  0
         NMat0=    1 NMatS0=    1 NMatT0=    0 NMatD0=    1 NMtDS0=    0 NMtDT0=    0
         I1Cent=           4 NGrid=           0.
 Petite list used in FoFCou.
 Requested convergence on RMS density matrix=1.00D-08 within 128 cycles.
 Requested convergence on MAX density matrix=1.00D-06.
 Requested convergence on             energy=1.00D-06.
 No special actions if energy rises.
 Keep R1 ints in memory in canonical form, NReq=3398679.
 Integral accuracy reduced to 1.0D-05 until final iterations.
 Initial convergence to 1.0D-05 achieved.  Increase integral accuracy.
 SCF Done:  E(RB3LYP) =  -567.636000114     A.U. after   14 cycles
             Convg  =    0.4399D-08             -V/T =  2.0056
 Calling FoFJK, ICntrl=      2127 FMM=F ISym2X=0 I1Cent= 0 IOpClX= 0 NMat=1 NMatS=1 NMatT=0.
 ***** Axes restored to original set *****
 -------------------------------------------------------------------
 Center     Atomic                   Forces (Hartrees/Bohr)
 Number     Number              X              Y              Z
 -------------------------------------------------------------------
      1       15          -0.006530933    0.011264215   -0.001757014
      2        8           0.016987578    0.009247679    0.000095836
      3        8          -0.016489933   -0.010080721    0.000117385
      4        8           0.007557177   -0.013002953   -0.000418766
      5        1          -0.001523888    0.002571780    0.001962559
 -------------------------------------------------------------------
 Cartesian Forces:  Max     0.016987578 RMS     0.008791787

 GradGradGradGradGradGradGradGradGradGradGradGradGradGradGradGradGradGrad
 Berny optimization.
 Using GEDIIS/GDIIS optimizer.
 Internal  Forces:  Max     0.017622529 RMS     0.010047801
 Search for a local minimum.
 Step number   3 out of a maximum of   21
 All quantities printed in internal units (Hartrees-Bohrs-Radians)
 Mixed Optimization -- RFO/linear search
 Update second derivatives using D2CorX and points    2    3
 DE= -3.48D-02 DEPred=-5.11D-02 R= 6.81D-01
 SS=  1.41D+00  RLast= 4.14D-01 DXNew= 8.4853D-01 1.2418D+00
 Trust test= 6.81D-01 RLast= 4.14D-01 DXMaxT set to 8.49D-01
 The second derivative matrix:
                          R1        R2        R3        R4        A1
           R1           0.41226
           R2           0.06511   0.41222
           R3          -0.00350  -0.00350   0.34371
           R4          -0.00613  -0.00613  -0.00293   0.55887
           A1           0.02238   0.02238   0.00938  -0.00288   0.24307
           A2          -0.01138  -0.01138  -0.00474   0.00145   0.00351
           A3          -0.01135  -0.01135  -0.00474   0.00145   0.00350
           A4           0.01153   0.01153   0.00413  -0.00212  -0.00150
           D1          -0.00037  -0.00037   0.00027  -0.00030   0.00003
           D2           0.00074   0.00074  -0.00002   0.00011  -0.00006
           D3          -0.00077  -0.00077   0.00001  -0.00010   0.00006
                          A2        A3        A4        D1        D2
           A2           0.24823
           A3          -0.00177   0.24823
           A4           0.00076   0.00076   0.16014
           D1          -0.00001  -0.00001   0.00007   0.01961
           D2           0.00003   0.00003  -0.00003  -0.00002   0.01959
           D3          -0.00003  -0.00003   0.00003   0.00002  -0.00001
                          D3
           D3           0.01959
 ITU=  1  1  0
 Use linear search instead of GDIIS.
     Eigenvalues ---    0.01958   0.01971   0.15897   0.23219   0.24998
     Eigenvalues ---    0.34500   0.34713   0.48330   0.56004
 RFO step:  Lambda=-2.57081649D-03 EMin= 1.95780410D-02
 Quartic linear search produced a step of -0.06050.
 Iteration  1 RMS(Cart)=  0.03790309 RMS(Int)=  0.00064107
 Iteration  2 RMS(Cart)=  0.00061694 RMS(Int)=  0.00005152
 Iteration  3 RMS(Cart)=  0.00000018 RMS(Int)=  0.00005152
 Variable       Old X    -DE/DX   Delta X   Delta X   Delta X     New X
                                 (Linear)    (Quad)   (Total)
    R1        2.75890   0.01762   0.01638   0.00852   0.02490   2.78380
    R2        2.75894   0.01761   0.01638   0.00849   0.02487   2.78380
    R3        3.09068  -0.01207   0.00438  -0.04400  -0.03962   3.05107
    R4        1.83401   0.00297  -0.00016   0.00642   0.00626   1.84027
    A1        2.24200   0.01465  -0.00598   0.06834   0.06237   2.30437
    A2        2.02013  -0.00733   0.00302  -0.03442  -0.03140   1.98874
    A3        2.02014  -0.00730   0.00302  -0.03432  -0.03129   1.98885
    A4        1.95692   0.00365  -0.00260   0.02655   0.02395   1.98087
    D1       -3.09319  -0.00021  -0.00280   0.01175   0.00903  -3.08416
    D2       -1.59397   0.00038   0.00122  -0.00479  -0.00347  -1.59744
    D3        1.58969  -0.00043  -0.00121   0.00244   0.00113   1.59082
         Item               Value     Threshold  Converged?
 Maximum Force            0.017623     0.000450     NO 
 RMS     Force            0.010048     0.000300     NO 
 Maximum Displacement     0.075061     0.001800     NO 
 RMS     Displacement     0.038038     0.001200     NO 
 Predicted change in Energy=-1.425464D-03
 GradGradGradGradGradGradGradGradGradGradGradGradGradGradGradGradGradGrad

                          Input orientation:                          
 ---------------------------------------------------------------------
 Center     Atomic      Atomic             Coordinates (Angstroms)
 Number     Number       Type             X           Y           Z
 ---------------------------------------------------------------------
      1         15           0       -1.323622   -0.069350   -0.094847
      2          8           0        0.141255    0.085070   -0.114274
      3          8           0       -2.190162   -1.260503   -0.113872
      4          8           0       -2.130442    1.328772   -0.127731
      5          1           0       -2.335991    1.679313    0.757262
 ---------------------------------------------------------------------
                    Distance matrix (angstroms):
                    1          2          3          4          5
     1  P    0.000000
     2  O    1.473122   0.000000
     3  O    1.473125   2.691853   0.000000
     4  O    1.614554   2.589900   2.590000   0.000000
     5  H    2.192899   3.072122   3.069635   0.973829   0.000000
 Stoichiometry    HO3P
 Framework group  C1[X(HO3P)]
 Deg. of freedom     9
 Full point group                 C1      NOp   1
 Largest Abelian subgroup         C1      NOp   1
 Largest concise Abelian subgroup C1      NOp   1
                         Standard orientation:                         
 ---------------------------------------------------------------------
 Center     Atomic      Atomic             Coordinates (Angstroms)
 Number     Number       Type             X           Y           Z
 ---------------------------------------------------------------------
      1         15           0       -0.134140    0.000512   -0.000429
      2          8           0       -0.738526   -1.342878    0.009949
      3          8           0       -0.727189    1.348951    0.009738
      4          8           0        1.476486   -0.006375   -0.112773
      5          1           0        1.925939   -0.005266    0.751132
 ---------------------------------------------------------------------
 Rotational constants (GHZ):      8.8565361      8.6124069      4.4221786
 Standard basis: 6-31G(d) (6D, 7F)
 There are    66 symmetry adapted basis functions of A   symmetry.
 Integral buffers will be    262144 words long.
 Raffenetti 2 integral format.
 Two-electron integral symmetry is turned on.
    66 basis functions,   140 primitive gaussians,    66 cartesian basis functions
    20 alpha electrons       20 beta electrons
       nuclear repulsion energy       175.0019826099 Hartrees.
 NAtoms=    5 NActive=    5 NUniq=    5 SFac= 1.00D+00 NAtFMM=   60 NAOKFM=F Big=F
 One-electron integrals computed using PRISM.
 NBasis=    66 RedAO= T  NBF=    66
 NBsUse=    66 1.00D-06 NBFU=    66
 Initial guess read from the read-write file.
 B after Tr=     0.000000    0.000000    0.000000
         Rot=    1.000000    0.000000    0.000000    0.000000 Ang=   0.00 deg.
 Initial guess orbital symmetries:
       Occupied  (A) (A) (A) (A) (A) (A) (A) (A) (A) (A) (A) (A)
                 (A) (A) (A) (A) (A) (A) (A) (A)
       Virtual   (A) (A) (A) (A) (A) (A) (A) (A) (A) (A) (A) (A)
                 (A) (A) (A) (A) (A) (A) (A) (A) (A) (A) (A) (A)
                 (A) (A) (A) (A) (A) (A) (A) (A) (A) (A) (A) (A)
                 (A) (A) (A) (A) (A) (A) (A) (A) (A) (A)
 Harris functional with IExCor=  402 diagonalized for initial guess.
 ExpMin= 9.98D-02 ExpMax= 1.94D+04 ExpMxC= 2.91D+03 IAcc=2 IRadAn=         4 AccDes= 0.00D+00
 HarFok:  IExCor=  402 AccDes= 0.00D+00 IRadAn=         4 IDoV= 1
 ScaDFX=  1.000000  1.000000  1.000000  1.000000
 FoFCou: FMM=F IPFlag=           0 FMFlag=      100000 FMFlg1=           0
         NFxFlg=           0 DoJE=T BraDBF=F KetDBF=T FulRan=T
         Omega=  0.000000  0.000000  1.000000  0.000000  0.000000 ICntrl=     500 IOpCl=  0
         NMat0=    1 NMatS0=    1 NMatT0=    0 NMatD0=    1 NMtDS0=    0 NMtDT0=    0
         I1Cent=           4 NGrid=           0.
 Petite list used in FoFCou.
 Requested convergence on RMS density matrix=1.00D-08 within 128 cycles.
 Requested convergence on MAX density matrix=1.00D-06.
 Requested convergence on             energy=1.00D-06.
 No special actions if energy rises.
 Keep R1 ints in memory in canonical form, NReq=3398679.
 Integral accuracy reduced to 1.0D-05 until final iterations.
 Initial convergence to 1.0D-05 achieved.  Increase integral accuracy.
 SCF Done:  E(RB3LYP) =  -567.637389200     A.U. after   11 cycles
             Convg  =    0.9340D-08             -V/T =  2.0057
 Calling FoFJK, ICntrl=      2127 FMM=F ISym2X=0 I1Cent= 0 IOpClX= 0 NMat=1 NMatS=1 NMatT=0.
 ***** Axes restored to original set *****
 -------------------------------------------------------------------
 Center     Atomic                   Forces (Hartrees/Bohr)
 Number     Number              X              Y              Z
 -------------------------------------------------------------------
      1       15           0.000768451   -0.001324280   -0.002129248
      2        8          -0.000621682   -0.000150296    0.000373389
      3        8           0.000435405    0.000442795    0.000405951
      4        8           0.000016684    0.000083483    0.003020417
      5        1          -0.000598858    0.000948298   -0.001670509
 -------------------------------------------------------------------
 Cartesian Forces:  Max     0.003020417 RMS     0.001187590

 GradGradGradGradGradGradGradGradGradGradGradGradGradGradGradGradGradGrad
 Berny optimization.
 Using GEDIIS/GDIIS optimizer.
 Internal  Forces:  Max     0.003186951 RMS     0.001127473
 Search for a local minimum.
 Step number   4 out of a maximum of   21
 All quantities printed in internal units (Hartrees-Bohrs-Radians)
 Mixed Optimization -- RFO/linear search
 Update second derivatives using D2CorX and points    2    3    4
 DE= -1.39D-03 DEPred=-1.43D-03 R= 9.74D-01
 SS=  1.41D+00  RLast= 9.68D-02 DXNew= 1.4270D+00 2.9041D-01
 Trust test= 9.74D-01 RLast= 9.68D-02 DXMaxT set to 8.49D-01
 The second derivative matrix:
                          R1        R2        R3        R4        A1
           R1           0.44968
           R2           0.10241   0.44942
           R3          -0.02216  -0.02205   0.34760
           R4           0.00280   0.00276  -0.00886   0.56173
           A1           0.03875   0.03863   0.01207   0.00194   0.23218
           A2          -0.01937  -0.01931  -0.00637  -0.00090   0.00928
           A3          -0.01948  -0.01942  -0.00618  -0.00094   0.00907
           A4          -0.00060  -0.00059   0.02296  -0.00628  -0.02388
           D1           0.00109   0.00108  -0.00115   0.00019   0.00147
           D2           0.00172   0.00172  -0.00113   0.00041   0.00118
           D3          -0.00143  -0.00143   0.00070  -0.00030  -0.00070
                          A2        A3        A4        D1        D2
           A2           0.24517
           A3          -0.00473   0.24538
           A4           0.01204   0.01199   0.15373
           D1          -0.00073  -0.00073  -0.00015   0.01967
           D2          -0.00059  -0.00059   0.00011   0.00001   0.01960
           D3           0.00035   0.00035  -0.00003   0.00000  -0.00002
                          D3
           D3           0.01959
 ITU=  1  1  1  0
 Use linear search instead of GDIIS.
     Eigenvalues ---    0.01958   0.01975   0.13757   0.22072   0.24998
     Eigenvalues ---    0.34713   0.34844   0.55905   0.57196
 RFO step:  Lambda=-9.62985529D-05 EMin= 1.95763978D-02
 Quartic linear search produced a step of -0.01054.
 Iteration  1 RMS(Cart)=  0.00825013 RMS(Int)=  0.00009194
 Iteration  2 RMS(Cart)=  0.00007671 RMS(Int)=  0.00006323
 Iteration  3 RMS(Cart)=  0.00000000 RMS(Int)=  0.00006323
 Variable       Old X    -DE/DX   Delta X   Delta X   Delta X     New X
                                 (Linear)    (Quad)   (Total)
    R1        2.78380  -0.00064  -0.00026  -0.00103  -0.00129   2.78251
    R2        2.78380  -0.00062  -0.00026  -0.00097  -0.00123   2.78257
    R3        3.05107   0.00116   0.00042   0.00122   0.00164   3.05270
    R4        1.84027  -0.00106  -0.00007  -0.00157  -0.00164   1.83863
    A1        2.30437  -0.00015  -0.00066   0.00305   0.00227   2.30665
    A2        1.98874   0.00007   0.00033  -0.00093  -0.00072   1.98802
    A3        1.98885   0.00011   0.00033  -0.00080  -0.00059   1.98826
    A4        1.98087   0.00319  -0.00025   0.02105   0.02080   2.00167
    D1       -3.08416  -0.00062  -0.00010  -0.03085  -0.03097  -3.11513
    D2       -1.59744   0.00021   0.00004   0.01047   0.01048  -1.58696
    D3        1.59082  -0.00029  -0.00001  -0.01474  -0.01473   1.57609
         Item               Value     Threshold  Converged?
 Maximum Force            0.003187     0.000450     NO 
 RMS     Force            0.001127     0.000300     NO 
 Maximum Displacement     0.017882     0.001800     NO 
 RMS     Displacement     0.008223     0.001200     NO 
 Predicted change in Energy=-4.843877D-05
 GradGradGradGradGradGradGradGradGradGradGradGradGradGradGradGradGradGrad

                          Input orientation:                          
 ---------------------------------------------------------------------
 Center     Atomic      Atomic             Coordinates (Angstroms)
 Number     Number       Type             X           Y           Z
 ---------------------------------------------------------------------
      1         15           0       -1.321959   -0.071868   -0.104309
      2          8           0        0.142226    0.083598   -0.112649
      3          8           0       -2.189605   -1.261537   -0.111663
      4          8           0       -2.128931    1.327440   -0.122159
      5          1           0       -2.340693    1.685670    0.757319
 ---------------------------------------------------------------------
                    Distance matrix (angstroms):
                    1          2          3          4          5
     1  P    0.000000
     2  O    1.472440   0.000000
     3  O    1.472473   2.691993   0.000000
     4  O    1.615422   2.589477   2.589710   0.000000
     5  H    2.206618   3.080319   3.076359   0.972961   0.000000
 Stoichiometry    HO3P
 Framework group  C1[X(HO3P)]
 Deg. of freedom     9
 Full point group                 C1      NOp   1
 Largest Abelian subgroup         C1      NOp   1
 Largest concise Abelian subgroup C1      NOp   1
                         Standard orientation:                         
 ---------------------------------------------------------------------
 Center     Atomic      Atomic             Coordinates (Angstroms)
 Number     Number       Type             X           Y           Z
 ---------------------------------------------------------------------
      1         15           0       -0.135651    0.000705   -0.007843
      2          8           0       -0.740003   -1.341794    0.015291
      3          8           0       -0.724414    1.350155    0.014950
      4          8           0        1.476571   -0.008850   -0.109013
      5          1           0        1.937529   -0.006659    0.747822
 ---------------------------------------------------------------------
 Rotational constants (GHZ):      8.8535456      8.6133286      4.4207205
 Standard basis: 6-31G(d) (6D, 7F)
 There are    66 symmetry adapted basis functions of A   symmetry.
 Integral buffers will be    262144 words long.
 Raffenetti 2 integral format.
 Two-electron integral symmetry is turned on.
    66 basis functions,   140 primitive gaussians,    66 cartesian basis functions
    20 alpha electrons       20 beta electrons
       nuclear repulsion energy       174.9975484046 Hartrees.
 NAtoms=    5 NActive=    5 NUniq=    5 SFac= 1.00D+00 NAtFMM=   60 NAOKFM=F Big=F
 One-electron integrals computed using PRISM.
 NBasis=    66 RedAO= T  NBF=    66
 NBsUse=    66 1.00D-06 NBFU=    66
 Initial guess read from the read-write file.
 B after Tr=     0.000000    0.000000    0.000000
         Rot=    1.000000    0.000000    0.000000    0.000000 Ang=   0.00 deg.
 Initial guess orbital symmetries:
       Occupied  (A) (A) (A) (A) (A) (A) (A) (A) (A) (A) (A) (A)
                 (A) (A) (A) (A) (A) (A) (A) (A)
       Virtual   (A) (A) (A) (A) (A) (A) (A) (A) (A) (A) (A) (A)
                 (A) (A) (A) (A) (A) (A) (A) (A) (A) (A) (A) (A)
                 (A) (A) (A) (A) (A) (A) (A) (A) (A) (A) (A) (A)
                 (A) (A) (A) (A) (A) (A) (A) (A) (A) (A)
 Requested convergence on RMS density matrix=1.00D-08 within 128 cycles.
 Requested convergence on MAX density matrix=1.00D-06.
 Requested convergence on             energy=1.00D-06.
 No special actions if energy rises.
 Keep R1 ints in memory in canonical form, NReq=3398679.
 SCF Done:  E(RB3LYP) =  -567.637420149     A.U. after    9 cycles
             Convg  =    0.7889D-08             -V/T =  2.0057
 Calling FoFJK, ICntrl=      2127 FMM=F ISym2X=0 I1Cent= 0 IOpClX= 0 NMat=1 NMatS=1 NMatT=0.
 ***** Axes restored to original set *****
 -------------------------------------------------------------------
 Center     Atomic                   Forces (Hartrees/Bohr)
 Number     Number              X              Y              Z
 -------------------------------------------------------------------
      1       15          -0.000633604    0.001042644    0.001722170
      2        8           0.000162481   -0.000252126   -0.000751810
      3        8           0.000145436   -0.000267712   -0.000697780
      4        8           0.000374450   -0.000451533    0.000562723
      5        1          -0.000048763   -0.000071273   -0.000835302
 -------------------------------------------------------------------
 Cartesian Forces:  Max     0.001722170 RMS     0.000685822

 GradGradGradGradGradGradGradGradGradGradGradGradGradGradGradGradGradGrad
 Berny optimization.
 Using GEDIIS/GDIIS optimizer.
 Internal  Forces:  Max     0.001095538 RMS     0.000557662
 Search for a local minimum.
 Step number   5 out of a maximum of   21
 All quantities printed in internal units (Hartrees-Bohrs-Radians)
 Mixed Optimization -- En-DIIS/RFO-DIIS
 Update second derivatives using D2CorX and points    2    3    4    5
 DE= -3.09D-05 DEPred=-4.84D-05 R= 6.39D-01
 SS=  1.41D+00  RLast= 4.16D-02 DXNew= 1.4270D+00 1.2488D-01
 Trust test= 6.39D-01 RLast= 4.16D-02 DXMaxT set to 8.49D-01
 The second derivative matrix:
                          R1        R2        R3        R4        A1
           R1           0.44830
           R2           0.10102   0.44800
           R3          -0.02244  -0.02223   0.35580
           R4           0.00194   0.00205  -0.00538   0.55446
           A1           0.03671   0.03666   0.01693   0.00749   0.23795
           A2          -0.01843  -0.01843  -0.00935  -0.00274   0.00579
           A3          -0.01856  -0.01856  -0.00907  -0.00253   0.00562
           A4          -0.00214  -0.00229   0.02834   0.02052  -0.02390
           D1           0.00347   0.00328  -0.01255  -0.00441  -0.00890
           D2           0.00042   0.00050   0.00392   0.00205   0.00603
           D3          -0.00026  -0.00032  -0.00345  -0.00264  -0.00455
                          A2        A3        A4        D1        D2
           A2           0.24711
           A3          -0.00284   0.24721
           A4           0.00870   0.00822   0.09870
           D1           0.00504   0.00484  -0.01367   0.03839
           D2          -0.00323  -0.00313   0.00739  -0.00835   0.02331
           D3           0.00257   0.00251  -0.00361   0.00711  -0.00322
                          D3
           D3           0.02226
 ITU=  1  1  1  1  0
 Use linear search instead of GDIIS.
     Eigenvalues ---    0.01944   0.03801   0.09381   0.22246   0.25000
     Eigenvalues ---    0.34713   0.36027   0.55394   0.56703
 RFO step:  Lambda=-4.25930836D-05 EMin= 1.94366038D-02
 Quartic linear search produced a step of -0.26293.
 Iteration  1 RMS(Cart)=  0.00951005 RMS(Int)=  0.00009999
 Iteration  2 RMS(Cart)=  0.00009602 RMS(Int)=  0.00003577
 Iteration  3 RMS(Cart)=  0.00000000 RMS(Int)=  0.00003577
 Variable       Old X    -DE/DX   Delta X   Delta X   Delta X     New X
                                 (Linear)    (Quad)   (Total)
    R1        2.78251   0.00014   0.00034  -0.00034   0.00000   2.78251
    R2        2.78257   0.00014   0.00032  -0.00031   0.00001   2.78258
    R3        3.05270  -0.00061  -0.00043  -0.00112  -0.00155   3.05115
    R4        1.83863  -0.00079   0.00043  -0.00202  -0.00159   1.83704
    A1        2.30665  -0.00052  -0.00060   0.00119   0.00052   2.30717
    A2        1.98802   0.00025   0.00019  -0.00084  -0.00072   1.98730
    A3        1.98826   0.00025   0.00016  -0.00074  -0.00066   1.98761
    A4        2.00167   0.00063  -0.00547   0.01808   0.01261   2.01428
    D1       -3.11513   0.00110   0.00814   0.02012   0.02827  -3.08686
    D2       -1.58696  -0.00052  -0.00276  -0.01216  -0.01490  -1.60186
    D3        1.57609   0.00038   0.00387   0.00412   0.00798   1.58407
         Item               Value     Threshold  Converged?
 Maximum Force            0.001096     0.000450     NO 
 RMS     Force            0.000558     0.000300     NO 
 Maximum Displacement     0.016307     0.001800     NO 
 RMS     Displacement     0.009484     0.001200     NO 
 Predicted change in Energy=-2.543378D-05
 GradGradGradGradGradGradGradGradGradGradGradGradGradGradGradGradGradGrad

                          Input orientation:                          
 ---------------------------------------------------------------------
 Center     Atomic      Atomic             Coordinates (Angstroms)
 Number     Number       Type             X           Y           Z
 ---------------------------------------------------------------------
      1         15           0       -1.320420   -0.073878   -0.095680
      2          8           0        0.143603    0.081679   -0.118410
      3          8           0       -2.189040   -1.262687   -0.116446
      4          8           0       -2.126362    1.325018   -0.117614
      5          1           0       -2.346743    1.693170    0.754688
 ---------------------------------------------------------------------
                    Distance matrix (angstroms):
                    1          2          3          4          5
     1  P    0.000000
     2  O    1.472439   0.000000
     3  O    1.472481   2.692312   0.000000
     4  O    1.614601   2.588172   2.588465   0.000000
     5  H    2.213351   3.092091   3.085585   0.972118   0.000000
 Stoichiometry    HO3P
 Framework group  C1[X(HO3P)]
 Deg. of freedom     9
 Full point group                 C1      NOp   1
 Largest Abelian subgroup         C1      NOp   1
 Largest concise Abelian subgroup C1      NOp   1
                         Standard orientation:                         
 ---------------------------------------------------------------------
 Center     Atomic      Atomic             Coordinates (Angstroms)
 Number     Number       Type             X           Y           Z
 ---------------------------------------------------------------------
      1         15           0       -0.135711    0.001279   -0.000703
      2          8           0       -0.746351   -1.338522    0.010679
      3          8           0       -0.718115    1.353642    0.010134
      4          8           0        1.474994   -0.015896   -0.111480
      5          1           0        1.951434   -0.012975    0.735874
 ---------------------------------------------------------------------
 Rotational constants (GHZ):      8.8581142      8.6133459      4.4207870
 Standard basis: 6-31G(d) (6D, 7F)
 There are    66 symmetry adapted basis functions of A   symmetry.
 Integral buffers will be    262144 words long.
 Raffenetti 2 integral format.
 Two-electron integral symmetry is turned on.
    66 basis functions,   140 primitive gaussians,    66 cartesian basis functions
    20 alpha electrons       20 beta electrons
       nuclear repulsion energy       175.0121946771 Hartrees.
 NAtoms=    5 NActive=    5 NUniq=    5 SFac= 1.00D+00 NAtFMM=   60 NAOKFM=F Big=F
 One-electron integrals computed using PRISM.
 NBasis=    66 RedAO= T  NBF=    66
 NBsUse=    66 1.00D-06 NBFU=    66
 Initial guess read from the read-write file.
 B after Tr=     0.000000    0.000000    0.000000
         Rot=    1.000000    0.000000    0.000000    0.000000 Ang=   0.00 deg.
 Initial guess orbital symmetries:
       Occupied  (A) (A) (A) (A) (A) (A) (A) (A) (A) (A) (A) (A)
                 (A) (A) (A) (A) (A) (A) (A) (A)
       Virtual   (A) (A) (A) (A) (A) (A) (A) (A) (A) (A) (A) (A)
                 (A) (A) (A) (A) (A) (A) (A) (A) (A) (A) (A) (A)
                 (A) (A) (A) (A) (A) (A) (A) (A) (A) (A) (A) (A)
                 (A) (A) (A) (A) (A) (A) (A) (A) (A) (A)
 Requested convergence on RMS density matrix=1.00D-08 within 128 cycles.
 Requested convergence on MAX density matrix=1.00D-06.
 Requested convergence on             energy=1.00D-06.
 No special actions if energy rises.
 Keep R1 ints in memory in canonical form, NReq=3398679.
 SCF Done:  E(RB3LYP) =  -567.637439939     A.U. after   10 cycles
             Convg  =    0.2145D-08             -V/T =  2.0057
 Calling FoFJK, ICntrl=      2127 FMM=F ISym2X=0 I1Cent= 0 IOpClX= 0 NMat=1 NMatS=1 NMatT=0.
 ***** Axes restored to original set *****
 -------------------------------------------------------------------
 Center     Atomic                   Forces (Hartrees/Bohr)
 Number     Number              X              Y              Z
 -------------------------------------------------------------------
      1       15          -0.000696327    0.001120413   -0.000311379
      2        8           0.000120569   -0.000315486    0.000080806
      3        8           0.000223510   -0.000288306    0.000167102
      4        8           0.000343988   -0.000238661    0.000205598
      5        1           0.000008260   -0.000277960   -0.000142126
 -------------------------------------------------------------------
 Cartesian Forces:  Max     0.001120413 RMS     0.000402810

 GradGradGradGradGradGradGradGradGradGradGradGradGradGradGradGradGradGrad
 Berny optimization.
 Using GEDIIS/GDIIS optimizer.
 Internal  Forces:  Max     0.000624897 RMS     0.000331815
 Search for a local minimum.
 Step number   6 out of a maximum of   21
 All quantities printed in internal units (Hartrees-Bohrs-Radians)
 Mixed Optimization -- En-DIIS/RFO-DIIS
 Swaping is turned off.
 Update second derivatives using D2CorX and points    2    3    4    5    6
 DE= -1.98D-05 DEPred=-2.54D-05 R= 7.78D-01
 SS=  1.41D+00  RLast= 3.54D-02 DXNew= 1.4270D+00 1.0606D-01
 Trust test= 7.78D-01 RLast= 3.54D-02 DXMaxT set to 8.49D-01
 The second derivative matrix:
                          R1        R2        R3        R4        A1
           R1           0.44752
           R2           0.10025   0.44724
           R3          -0.02271  -0.02260   0.36183
           R4           0.00317   0.00347  -0.01297   0.54435
           A1           0.03617   0.03601   0.02420  -0.00253   0.24051
           A2          -0.01780  -0.01774  -0.01425   0.00006   0.00587
           A3          -0.01788  -0.01781  -0.01455   0.00103   0.00514
           A4          -0.00567  -0.00639   0.05569   0.03128   0.00127
           D1           0.00241   0.00203  -0.00535  -0.00231   0.00147
           D2           0.00079   0.00094   0.00190  -0.00055   0.00237
           D3          -0.00067  -0.00081  -0.00013  -0.00335  -0.00004
                          A2        A3        A4        D1        D2
           A2           0.24607
           A3          -0.00361   0.24676
           A4           0.00205  -0.00081   0.10553
           D1           0.00162   0.00060  -0.00679   0.04234
           D2          -0.00214  -0.00179   0.00925  -0.00840   0.02277
           D3           0.00089   0.00046   0.00310   0.00991  -0.00371
                          D3
           D3           0.02385
 ITU=  1  1  1  1  1  0
     Eigenvalues ---    0.01842   0.04872   0.09319   0.21373   0.25004
     Eigenvalues ---    0.34713   0.37800   0.54577   0.56473
 En-DIIS/RFO-DIIS IScMMF=        0 using points:     6    5
 RFO step:  Lambda=-2.50377989D-06.
 DidBck=F Rises=F RFO-DIIS coefs:    0.83277    0.16723
 Iteration  1 RMS(Cart)=  0.00230188 RMS(Int)=  0.00000950
 Iteration  2 RMS(Cart)=  0.00000461 RMS(Int)=  0.00000732
 Iteration  3 RMS(Cart)=  0.00000000 RMS(Int)=  0.00000732
 Variable       Old X    -DE/DX   Delta X   Delta X   Delta X     New X
                                  (DIIS)     (GDIIS)  (Total)
    R1        2.78251   0.00009   0.00000   0.00036   0.00036   2.78287
    R2        2.78258   0.00010   0.00000   0.00040   0.00040   2.78298
    R3        3.05115  -0.00062   0.00026  -0.00148  -0.00122   3.04993
    R4        1.83704  -0.00025   0.00027  -0.00074  -0.00048   1.83656
    A1        2.30717  -0.00062  -0.00009  -0.00251  -0.00258   2.30459
    A2        1.98730   0.00029   0.00012   0.00116   0.00129   1.98859
    A3        1.98761   0.00035   0.00011   0.00135   0.00148   1.98908
    A4        2.01428  -0.00026  -0.00211   0.00059  -0.00152   2.01276
    D1       -3.08686  -0.00023  -0.00473  -0.00008  -0.00480  -3.09166
    D2       -1.60186  -0.00003   0.00249  -0.00516  -0.00267  -1.60453
    D3        1.58407  -0.00019  -0.00133  -0.00510  -0.00644   1.57763
         Item               Value     Threshold  Converged?
 Maximum Force            0.000625     0.000450     NO 
 RMS     Force            0.000332     0.000300     NO 
 Maximum Displacement     0.003822     0.001800     NO 
 RMS     Displacement     0.002303     0.001200     NO 
 Predicted change in Energy=-3.114453D-06
 GradGradGradGradGradGradGradGradGradGradGradGradGradGradGradGradGradGrad

                          Input orientation:                          
 ---------------------------------------------------------------------
 Center     Atomic      Atomic             Coordinates (Angstroms)
 Number     Number       Type             X           Y           Z
 ---------------------------------------------------------------------
      1         15           0       -1.320771   -0.072455   -0.097103
      2          8           0        0.143753    0.080403   -0.118263
      3          8           0       -2.188561   -1.262175   -0.115040
      4          8           0       -2.125551    1.326382   -0.118008
      5          1           0       -2.347833    1.691147    0.754952
 ---------------------------------------------------------------------
                    Distance matrix (angstroms):
                    1          2          3          4          5
     1  P    0.000000
     2  O    1.472632   0.000000
     3  O    1.472690   2.691137   0.000000
     4  O    1.613955   2.588862   2.589326   0.000000
     5  H    2.211593   3.092734   3.082916   0.971865   0.000000
 Stoichiometry    HO3P
 Framework group  C1[X(HO3P)]
 Deg. of freedom     9
 Full point group                 C1      NOp   1
 Largest Abelian subgroup         C1      NOp   1
 Largest concise Abelian subgroup C1      NOp   1
                         Standard orientation:                         
 ---------------------------------------------------------------------
 Center     Atomic      Atomic             Coordinates (Angstroms)
 Number     Number       Type             X           Y           Z
 ---------------------------------------------------------------------
      1         15           0       -0.134817    0.001804   -0.001939
      2          8           0       -0.753208   -1.334629    0.011630
      3          8           0       -0.712958    1.356206    0.010803
      4          8           0        1.475265   -0.022728   -0.110967
      5          1           0        1.949462   -0.017848    0.737346
 ---------------------------------------------------------------------
 Rotational constants (GHZ):      8.8511807      8.6206280      4.4210478
 Standard basis: 6-31G(d) (6D, 7F)
 There are    66 symmetry adapted basis functions of A   symmetry.
 Integral buffers will be    262144 words long.
 Raffenetti 2 integral format.
 Two-electron integral symmetry is turned on.
    66 basis functions,   140 primitive gaussians,    66 cartesian basis functions
    20 alpha electrons       20 beta electrons
       nuclear repulsion energy       175.0187026608 Hartrees.
 NAtoms=    5 NActive=    5 NUniq=    5 SFac= 1.00D+00 NAtFMM=   60 NAOKFM=F Big=F
 One-electron integrals computed using PRISM.
 NBasis=    66 RedAO= T  NBF=    66
 NBsUse=    66 1.00D-06 NBFU=    66
 Initial guess read from the read-write file.
 B after Tr=     0.000000    0.000000    0.000000
         Rot=    1.000000    0.000000    0.000000    0.000000 Ang=   0.00 deg.
 Initial guess orbital symmetries:
       Occupied  (A) (A) (A) (A) (A) (A) (A) (A) (A) (A) (A) (A)
                 (A) (A) (A) (A) (A) (A) (A) (A)
       Virtual   (A) (A) (A) (A) (A) (A) (A) (A) (A) (A) (A) (A)
                 (A) (A) (A) (A) (A) (A) (A) (A) (A) (A) (A) (A)
                 (A) (A) (A) (A) (A) (A) (A) (A) (A) (A) (A) (A)
                 (A) (A) (A) (A) (A) (A) (A) (A) (A) (A)
 Requested convergence on RMS density matrix=1.00D-08 within 128 cycles.
 Requested convergence on MAX density matrix=1.00D-06.
 Requested convergence on             energy=1.00D-06.
 No special actions if energy rises.
 Keep R1 ints in memory in canonical form, NReq=3398679.
 SCF Done:  E(RB3LYP) =  -567.637444154     A.U. after   10 cycles
             Convg  =    0.1213D-08             -V/T =  2.0057
 Calling FoFJK, ICntrl=      2127 FMM=F ISym2X=0 I1Cent= 0 IOpClX= 0 NMat=1 NMatS=1 NMatT=0.
 ***** Axes restored to original set *****
 -------------------------------------------------------------------
 Center     Atomic                   Forces (Hartrees/Bohr)
 Number     Number              X              Y              Z
 -------------------------------------------------------------------
      1       15          -0.000196323    0.000224768    0.000004850
      2        8          -0.000117075   -0.000063128   -0.000073181
      3        8           0.000124855    0.000030044    0.000057297
      4        8           0.000347290   -0.000062833   -0.000061423
      5        1          -0.000158746   -0.000128851    0.000072457
 -------------------------------------------------------------------
 Cartesian Forces:  Max     0.000347290 RMS     0.000143130

 GradGradGradGradGradGradGradGradGradGradGradGradGradGradGradGradGradGrad
 Berny optimization.
 Using GEDIIS/GDIIS optimizer.
 Internal  Forces:  Max     0.000253849 RMS     0.000127481
 Search for a local minimum.
 Step number   7 out of a maximum of   21
 All quantities printed in internal units (Hartrees-Bohrs-Radians)
 Mixed Optimization -- En-DIIS/RFO-DIIS
 Swaping is turned off.
 Update second derivatives using D2CorX and points    2    3    4    5    6
                                                      7
 DE= -4.21D-06 DEPred=-3.11D-06 R= 1.35D+00
 SS=  1.41D+00  RLast= 9.30D-03 DXNew= 1.4270D+00 2.7906D-02
 Trust test= 1.35D+00 RLast= 9.30D-03 DXMaxT set to 8.49D-01
 The second derivative matrix:
                          R1        R2        R3        R4        A1
           R1           0.45968
           R2           0.11154   0.45766
           R3          -0.03656  -0.03374   0.34575
           R4          -0.01381  -0.01159  -0.00693   0.56425
           A1           0.01477   0.01780   0.00726   0.01486   0.24650
           A2          -0.00652  -0.00805  -0.00775  -0.01098  -0.00247
           A3          -0.00827  -0.00991  -0.00034  -0.00540   0.00540
           A4          -0.00624  -0.00649   0.04193   0.02796  -0.00548
           D1          -0.00542  -0.00485  -0.00413   0.00641   0.00836
           D2           0.00811   0.00806  -0.01533  -0.01461  -0.01932
           D3           0.00159   0.00192  -0.01759  -0.01215  -0.01834
                          A2        A3        A4        D1        D2
           A2           0.25283
           A3          -0.00102   0.24458
           A4           0.00371   0.00246   0.10493
           D1          -0.00233  -0.00096  -0.00877   0.04515
           D2           0.00865   0.00914   0.00680  -0.01486   0.02555
           D3           0.00977   0.01119  -0.00100   0.00486  -0.00529
                          D3
           D3           0.01849
 ITU=  1  1  1  1  1  1  0
     Eigenvalues ---    0.00859   0.05066   0.09806   0.24075   0.25349
     Eigenvalues ---    0.34431   0.34868   0.55802   0.59388
 En-DIIS/RFO-DIIS IScMMF=        0 using points:     7    6    5
 RFO step:  Lambda=-9.12938250D-07.
 DidBck=F Rises=F RFO-DIIS coefs:    1.58010   -0.59557    0.01547
 Iteration  1 RMS(Cart)=  0.00723067 RMS(Int)=  0.00007329
 Iteration  2 RMS(Cart)=  0.00005495 RMS(Int)=  0.00000346
 Iteration  3 RMS(Cart)=  0.00000000 RMS(Int)=  0.00000346
 Variable       Old X    -DE/DX   Delta X   Delta X   Delta X     New X
                                  (DIIS)     (GDIIS)  (Total)
    R1        2.78287  -0.00012   0.00021  -0.00020   0.00001   2.78288
    R2        2.78298  -0.00010   0.00023  -0.00005   0.00018   2.78316
    R3        3.04993  -0.00025  -0.00068  -0.00205  -0.00273   3.04720
    R4        1.83656   0.00004  -0.00025  -0.00055  -0.00080   1.83576
    A1        2.30459  -0.00013  -0.00151  -0.00194  -0.00345   2.30114
    A2        1.98859   0.00003   0.00076   0.00065   0.00141   1.99000
    A3        1.98908   0.00010   0.00087   0.00129   0.00215   1.99124
    A4        2.01276  -0.00009  -0.00108   0.00205   0.00097   2.01373
    D1       -3.09166  -0.00001  -0.00322  -0.00018  -0.00340  -3.09506
    D2       -1.60453  -0.00016  -0.00132  -0.01779  -0.01910  -1.62363
    D3        1.57763  -0.00016  -0.00386  -0.01785  -0.02172   1.55591
         Item               Value     Threshold  Converged?
 Maximum Force            0.000254     0.000450     YES
 RMS     Force            0.000127     0.000300     YES
 Maximum Displacement     0.014379     0.001800     NO 
 RMS     Displacement     0.007228     0.001200     NO 
 Predicted change in Energy=-4.042296D-06
 GradGradGradGradGradGradGradGradGradGradGradGradGradGradGradGradGradGrad

                          Input orientation:                          
 ---------------------------------------------------------------------
 Center     Atomic      Atomic             Coordinates (Angstroms)
 Number     Number       Type             X           Y           Z
 ---------------------------------------------------------------------
      1         15           0       -1.319936   -0.070199   -0.098054
      2          8           0        0.145185    0.076668   -0.120778
      3          8           0       -2.188508   -1.259523   -0.111904
      4          8           0       -2.120261    1.329546   -0.117468
      5          1           0       -2.355442    1.686811    0.754743
 ---------------------------------------------------------------------
                    Distance matrix (angstroms):
                    1          2          3          4          5
     1  P    0.000000
     2  O    1.472639   0.000000
     3  O    1.472787   2.689165   0.000000
     4  O    1.612508   2.588814   2.589975   0.000000
     5  H    2.210570   3.100359   3.075683   0.971442   0.000000
 Stoichiometry    HO3P
 Framework group  C1[X(HO3P)]
 Deg. of freedom     9
 Full point group                 C1      NOp   1
 Largest Abelian subgroup         C1      NOp   1
 Largest concise Abelian subgroup C1      NOp   1
                         Standard orientation:                         
 ---------------------------------------------------------------------
 Center     Atomic      Atomic             Coordinates (Angstroms)
 Number     Number       Type             X           Y           Z
 ---------------------------------------------------------------------
      1         15           0       -0.133533    0.004239   -0.002812
      2          8           0       -0.781856   -1.317917    0.012840
      3          8           0       -0.685714    1.369528    0.010761
      4          8           0        1.474310   -0.054401   -0.110450
      5          1           0        1.949079   -0.041258    0.736970
 ---------------------------------------------------------------------
 Rotational constants (GHZ):      8.8463434      8.6331986      4.4230078
 Standard basis: 6-31G(d) (6D, 7F)
 There are    66 symmetry adapted basis functions of A   symmetry.
 Integral buffers will be    262144 words long.
 Raffenetti 2 integral format.
 Two-electron integral symmetry is turned on.
    66 basis functions,   140 primitive gaussians,    66 cartesian basis functions
    20 alpha electrons       20 beta electrons
       nuclear repulsion energy       175.0605838594 Hartrees.
 NAtoms=    5 NActive=    5 NUniq=    5 SFac= 1.00D+00 NAtFMM=   60 NAOKFM=F Big=F
 One-electron integrals computed using PRISM.
 NBasis=    66 RedAO= T  NBF=    66
 NBsUse=    66 1.00D-06 NBFU=    66
 Initial guess read from the read-write file.
 B after Tr=     0.000000    0.000000    0.000000
         Rot=    1.000000    0.000000    0.000000    0.000000 Ang=   0.00 deg.
 Initial guess orbital symmetries:
       Occupied  (A) (A) (A) (A) (A) (A) (A) (A) (A) (A) (A) (A)
                 (A) (A) (A) (A) (A) (A) (A) (A)
       Virtual   (A) (A) (A) (A) (A) (A) (A) (A) (A) (A) (A) (A)
                 (A) (A) (A) (A) (A) (A) (A) (A) (A) (A) (A) (A)
                 (A) (A) (A) (A) (A) (A) (A) (A) (A) (A) (A) (A)
                 (A) (A) (A) (A) (A) (A) (A) (A) (A) (A)
 Requested convergence on RMS density matrix=1.00D-08 within 128 cycles.
 Requested convergence on MAX density matrix=1.00D-06.
 Requested convergence on             energy=1.00D-06.
 No special actions if energy rises.
 Keep R1 ints in memory in canonical form, NReq=3398679.
 SCF Done:  E(RB3LYP) =  -567.637452548     A.U. after   10 cycles
             Convg  =    0.4207D-08             -V/T =  2.0057
 Calling FoFJK, ICntrl=      2127 FMM=F ISym2X=0 I1Cent= 0 IOpClX= 0 NMat=1 NMatS=1 NMatT=0.
 ***** Axes restored to original set *****
 -------------------------------------------------------------------
 Center     Atomic                   Forces (Hartrees/Bohr)
 Number     Number              X              Y              Z
 -------------------------------------------------------------------
      1       15           0.000399091   -0.001005857    0.000270215
      2        8          -0.000166167    0.000318612   -0.000265369
      3        8          -0.000159120    0.000212881    0.000063470
      4        8           0.000450804    0.000600710   -0.000480235
      5        1          -0.000524608   -0.000126347    0.000411920
 -------------------------------------------------------------------
 Cartesian Forces:  Max     0.001005857 RMS     0.000430024

 GradGradGradGradGradGradGradGradGradGradGradGradGradGradGradGradGradGrad
 Berny optimization.
 Using GEDIIS/GDIIS optimizer.
 Internal  Forces:  Max     0.000538680 RMS     0.000337138
 Search for a local minimum.
 Step number   8 out of a maximum of   21
 All quantities printed in internal units (Hartrees-Bohrs-Radians)
 Mixed Optimization -- En-DIIS/RFO-DIIS
 Swaping is turned off.
 Update second derivatives using D2CorX and points    2    3    4    5    6
                                                      7    8
 DE= -8.39D-06 DEPred=-4.04D-06 R= 2.08D+00
 SS=  1.41D+00  RLast= 2.96D-02 DXNew= 1.4270D+00 8.8788D-02
 Trust test= 2.08D+00 RLast= 2.96D-02 DXMaxT set to 8.49D-01
 The second derivative matrix:
                          R1        R2        R3        R4        A1
           R1           0.43215
           R2           0.08671   0.43509
           R3           0.00903   0.00598   0.21613
           R4           0.03497   0.03142  -0.10553   0.46910
           A1           0.06525   0.06154  -0.10822  -0.09442   0.12339
           A2          -0.03535  -0.03278   0.06086   0.05314   0.06984
           A3          -0.03133  -0.03009   0.05199   0.04417   0.06079
           A4          -0.01235  -0.01186   0.05750   0.03978   0.00790
           D1           0.00578   0.00472  -0.02575  -0.01826  -0.01902
           D2          -0.01050  -0.00706   0.03183   0.02997   0.03177
           D3          -0.00983  -0.00714   0.01427   0.01571   0.01469
                          A2        A3        A4        D1        D2
           A2           0.21005
           A3          -0.03325   0.21936
           A4          -0.00450  -0.00366   0.10280
           D1           0.01367   0.01108  -0.00656   0.03829
           D2          -0.02265  -0.01239   0.00099  -0.00282  -0.00183
           D3          -0.01096  -0.00249  -0.00520   0.01261  -0.02462
                          D3
           D3           0.00463
 ITU=  1  1  1  1  1  1  1  0
     Eigenvalues ---   -0.14112   0.00578   0.05154   0.10717   0.24847
     Eigenvalues ---    0.29288   0.34697   0.50827   0.56032
 Use linear search instead of GDIIS.
 RFO step:  Lambda=-1.41127138D-01 EMin=-1.41118740D-01
[...]
                 (A) (A) (A) (A) (A) (A) (A) (A) (A) (A) (A) (A)
                 (A) (A) (A) (A) (A) (A) (A) (A) (A) (A)
 The electronic state is 1-A.
 Alpha  occ. eigenvalues --  -77.25130 -19.24526 -19.17916 -19.17703  -6.70670
 Alpha  occ. eigenvalues --   -4.87207  -4.86878  -4.86642  -1.11898  -1.03763
 Alpha  occ. eigenvalues --   -1.00375  -0.64334  -0.51358  -0.46804  -0.46623
 Alpha  occ. eigenvalues --   -0.42249  -0.38155  -0.36948  -0.34625  -0.33194
 Alpha virt. eigenvalues --   -0.06401  -0.03941   0.04621   0.14869   0.16132
 Alpha virt. eigenvalues --    0.25344   0.26304   0.33894   0.41076   0.58630
 Alpha virt. eigenvalues --    0.64450   0.71414   0.76518   0.78704   0.85093
 Alpha virt. eigenvalues --    0.89143   0.90314   0.92397   0.95949   1.01406
 Alpha virt. eigenvalues --    1.04982   1.06565   1.09428   1.18743   1.28616
 Alpha virt. eigenvalues --    1.31957   1.38690   1.65590   1.68812   1.74368
 Alpha virt. eigenvalues --    1.76437   1.77731   1.80979   1.88827   1.97402
 Alpha virt. eigenvalues --    2.12831   2.13920   2.20309   2.32959   2.51613
 Alpha virt. eigenvalues --    2.78056   2.79333   3.39650   3.56806   3.66821
 Alpha virt. eigenvalues --    3.81946
          Condensed to atoms (all electrons):
              1          2          3          4          5
     1  P   12.606233   0.529865   0.511349   0.275321  -0.001630
     2  O    0.529865   7.978562  -0.020410  -0.032557   0.001085
     3  O    0.511349  -0.020410   8.027008  -0.036113   0.001788
     4  O    0.275321  -0.032557  -0.036113   8.145897   0.240502
     5  H   -0.001630   0.001085   0.001788   0.240502   0.303899
 Mulliken atomic charges:
              1
     1  P    1.078862
     2  O   -0.456545
     3  O   -0.483622
     4  O   -0.593051
     5  H    0.454356
 Sum of Mulliken atomic charges =   0.00000
 Mulliken charges with hydrogens summed into heavy atoms:
              1
     1  P    1.078862
     2  O   -0.456545
     3  O   -0.483622
     4  O   -0.138696
 Sum of Mulliken charges with hydrogens summed into heavy atoms =   0.00000
 APT atomic charges:
              1
     1  P    1.584927
     2  O   -0.589178
     3  O   -0.627441
     4  O   -0.707101
     5  H    0.338793
 Sum of APT charges=   0.00000
 APT Atomic charges with hydrogens summed into heavy atoms:
              1
     1  P    1.584927
     2  O   -0.589178
     3  O   -0.627441
     4  O   -0.368308
     5  H    0.000000
 Sum of APT charges=   0.00000
 Electronic spatial extent (au):  <R**2>=            275.1954
 Charge=              0.0000 electrons
 Dipole moment (field-independent basis, Debye):
    X=              2.8366    Y=             -1.4413    Z=              0.0001  Tot=              3.1818
 Quadrupole moment (field-independent basis, Debye-Ang):
   XX=            -28.1494   YY=            -32.5341   ZZ=            -25.8543
   XY=             -4.0607   XZ=             -0.0001   YZ=              0.0001
 Traceless Quadrupole moment (field-independent basis, Debye-Ang):
   XX=              0.6966   YY=             -3.6882   ZZ=              2.9916
   XY=             -4.0607   XZ=             -0.0001   YZ=              0.0001
 Octapole moment (field-independent basis, Debye-Ang**2):
  XXX=             17.6215  YYY=             -3.1147  ZZZ=              0.0000  XYY=             -0.9113
  XXY=             -6.3280  XXZ=             -0.0002  XZZ=              0.1936  YZZ=             -0.0366
  YYZ=             -0.0001  XYZ=              0.0001
 Hexadecapole moment (field-independent basis, Debye-Ang**3):
 XXXX=           -136.6795 YYYY=           -148.5263 ZZZZ=            -21.5598 XXXY=            -14.4296
 XXXZ=             -0.0003 YYYX=             -5.2670 YYYZ=              0.0001 ZZZX=              0.0000
 ZZZY=              0.0000 XXYY=            -44.1176 XXZZ=            -28.3445 YYZZ=            -27.2774
 XXYZ=              0.0002 YYXZ=             -0.0001 ZZXY=             -0.4715
 N-N= 1.757549713621D+02 E-N=-1.696149240969D+03  KE= 5.644257301520D+02
  Exact polarizability:  30.827   1.295  26.168   0.000   0.000  16.273
 Approx polarizability:  54.213   8.724  43.529   0.000   0.000  23.169
 Calling FoFJK, ICntrl=    100127 FMM=F ISym2X=0 I1Cent= 0 IOpClX= 0 NMat=1 NMatS=1 NMatT=0.
 Full mass-weighted force constant matrix:
 Low frequencies ---  -18.0173  -12.4111   -0.0024   -0.0018    0.0009    6.9936
 Low frequencies ---  386.4706  401.9138  438.4760
 Harmonic frequencies (cm**-1), IR intensities (KM/Mole), Raman scattering
 activities (A**4/AMU), depolarization ratios for plane and unpolarized
 incident light, reduced masses (AMU), force constants (mDyne/A),
 and normal coordinates:
                     1                      2                      3
                     A                      A                      A
 Frequencies --   386.4706               401.9133               438.4758
 Red. masses --     5.8560                 9.9753                15.1776
 Frc consts  --     0.5153                 0.9494                 1.7193
 IR Inten    --    18.7066                18.1895                45.7016
  Atom  AN      X      Y      Z        X      Y      Z        X      Y      Z
     1  15     0.13   0.09   0.00     0.00   0.00   0.43     0.15  -0.24   0.00
     2   8     0.19  -0.19   0.00     0.00   0.00  -0.33     0.01   0.58   0.00
     3   8    -0.12   0.26   0.00     0.00   0.00  -0.30    -0.53   0.19   0.00
     4   8    -0.30  -0.18   0.00     0.00   0.00  -0.16     0.22  -0.28   0.00
     5   1    -0.18  -0.82   0.00     0.00   0.00  -0.77     0.23  -0.29   0.00
                     4                      5                      6
                     A                      A                      A
 Frequencies --   494.9326               877.9408              1069.0371
 Red. masses --     1.1699                15.6089                 1.1996
 Frc consts  --     0.1688                 7.0885                 0.8077
 IR Inten    --   166.6169               103.7873               125.8561
  Atom  AN      X      Y      Z        X      Y      Z        X      Y      Z
     1  15     0.00   0.00   0.03    -0.16   0.24   0.00     0.00   0.00   0.00
     2   8     0.00   0.00   0.01    -0.32  -0.09   0.00     0.06   0.00   0.00
     3   8     0.00   0.00  -0.04     0.21   0.27   0.00    -0.01   0.02   0.00
     4   8     0.00   0.00  -0.09     0.40  -0.65   0.00    -0.05  -0.08   0.00
     5   1     0.00   0.00   1.00     0.32  -0.10   0.00    -0.24   0.96   0.00
                     7                      8                      9
                     A                      A                      A
 Frequencies --  1172.7621              1452.8757              3720.1567
 Red. masses --    14.9341                15.9011                 1.0659
 Frc consts  --    12.1018                19.7758                 8.6912
 IR Inten    --   105.2173               161.4005               120.6442
  Atom  AN      X      Y      Z        X      Y      Z        X      Y      Z
     1  15    -0.18   0.32   0.00     0.43   0.25   0.00     0.00   0.00   0.00
     2   8     0.51   0.08   0.00    -0.51  -0.10   0.00     0.00   0.00   0.00
     3   8    -0.31  -0.51   0.00    -0.27  -0.38   0.00     0.00   0.00   0.00
     4   8     0.14  -0.16   0.00    -0.04  -0.03   0.00     0.06   0.01   0.00
     5   1     0.18  -0.41   0.00    -0.12   0.49   0.00    -0.98  -0.18   0.00

 -------------------
 - Thermochemistry -
 -------------------
 Temperature   298.150 Kelvin.  Pressure   1.00000 Atm.
 Atom     1 has atomic number 15 and mass  30.97376
 Atom     2 has atomic number  8 and mass  15.99491
 Atom     3 has atomic number  8 and mass  15.99491
 Atom     4 has atomic number  8 and mass  15.99491
 Atom     5 has atomic number  1 and mass   1.00783
 Molecular mass:    79.96633 amu.
 Principal axes and moments of inertia in atomic units:
                           1         2         3
     Eigenvalues --   194.02005 213.01951 407.03956
           X            0.93088  -0.36533   0.00000
           Y            0.36533   0.93088   0.00000
           Z            0.00000   0.00000   1.00000
 This molecule is an asymmetric top.
 Rotational symmetry number  1.
 Rotational temperatures (Kelvin)      0.44642     0.40660     0.21279
 Rotational constants (GHZ):           9.30183     8.47219     4.43382
 Zero-point vibrational energy      59900.4 (Joules/Mol)
                                   14.31654 (Kcal/Mol)
 Warning -- explicit consideration of   4 degrees of freedom as
           vibrations may cause significant error
 Vibrational temperatures:    556.04   578.26   630.87   712.10  1263.16
          (Kelvin)           1538.10  1687.34  2090.36  5352.47
 
 Zero-point correction=                           0.022815 (Hartree/Particle)
 Thermal correction to Energy=                    0.026891
 Thermal correction to Enthalpy=                  0.027835
 Thermal correction to Gibbs Free Energy=        -0.004066
 Sum of electronic and zero-point Energies=           -567.627075
 Sum of electronic and thermal Energies=              -567.622999
 Sum of electronic and thermal Enthalpies=            -567.622055
 Sum of electronic and thermal Free Energies=         -567.653956
 
                     E (Thermal)             CV                S
                      KCal/Mol        Cal/Mol-Kelvin    Cal/Mol-Kelvin
 Total                   16.874             12.724             67.142
 Electronic               0.000              0.000              0.000
 Translational            0.889              2.981             39.052
 Rotational               0.889              2.981             24.335
 Vibrational             15.097              6.763              3.756
 Vibration     1          0.755              1.499              1.014
 Vibration     2          0.768              1.466              0.956
 Vibration     3          0.799              1.386              0.831
 Vibration     4          0.851              1.261              0.671
                       Q            Log10(Q)             Ln(Q)
 Total Bot       0.741910D+02          1.870351          4.306643
 Total V=0       0.231438D+13         12.364435         28.470163
 Vib (Bot)       0.568509D-10        -10.245262        -23.590588
 Vib (Bot)    1  0.465710D+00         -0.331884         -0.764192
 Vib (Bot)    2  0.442848D+00         -0.353745         -0.814529
 Vib (Bot)    3  0.394733D+00         -0.403697         -0.929547
 Vib (Bot)    4  0.333562D+00         -0.476823         -1.097926
 Vib (V=0)       0.177346D+01          0.248821          0.572932
 Vib (V=0)    1  0.118329D+01          0.073091          0.168299
 Vib (V=0)    2  0.116792D+01          0.067412          0.155223
 Vib (V=0)    3  0.113704D+01          0.055774          0.128424
 Vib (V=0)    4  0.110105D+01          0.041808          0.096266
 Electronic      0.100000D+01          0.000000          0.000000
 Translational   0.281071D+08          7.448816         17.151533
 Rotational      0.464299D+05          4.666798         10.745699
 ***** Axes restored to original set *****
 -------------------------------------------------------------------
 Center     Atomic                   Forces (Hartrees/Bohr)
 Number     Number              X              Y              Z
 -------------------------------------------------------------------
      1       15          -0.000020218    0.000009000    0.000000064
      2        8          -0.000020106   -0.000005358    0.000006203
      3        8           0.000029987    0.000061121    0.000000325
      4        8          -0.000010126   -0.000070210   -0.000002657
      5        1           0.000020463    0.000005446   -0.000003935
 -------------------------------------------------------------------
 Cartesian Forces:  Max     0.000070210 RMS     0.000027202

 GradGradGradGradGradGradGradGradGradGradGradGradGradGradGradGradGradGrad
 Berny optimization.
 Internal  Forces:  Max     0.000065643 RMS     0.000032007
 Search for a local minimum.
 Step number   1 out of a maximum of    2
 All quantities printed in internal units (Hartrees-Bohrs-Radians)
 Second derivative matrix not updated -- analytic derivatives used.
 The second derivative matrix:
                          R1        R2        R3        R4        A1
           R1           0.68290
           R2          -0.00064   0.66292
           R3           0.00561   0.00809   0.36000
           R4          -0.00368  -0.00404   0.00072   0.49724
           A1           0.00716   0.00384  -0.02019   0.00412   0.13429
           A2           0.01088  -0.02039   0.01810   0.00556  -0.06510
           A3          -0.01804   0.01655   0.00208  -0.00969  -0.06920
           A4           0.00314   0.00113   0.04408   0.02359   0.00233
           D1           0.00000   0.00000   0.00000   0.00000   0.00000
           D2           0.00000   0.00000   0.00000   0.00000   0.00000
           D3           0.00000   0.00000   0.00000   0.00000   0.00000
                          A2        A3        A4        D1        D2
           A2           0.14690
           A3          -0.08180   0.15099
           A4           0.02815  -0.03047   0.13244
           D1           0.00000   0.00000   0.00000   0.03691
           D2           0.00000   0.00000   0.00000  -0.01485   0.01218
           D3           0.00000   0.00000   0.00000   0.01383   0.00064
                          D3
           D3           0.01138
 ITU=  0
     Eigenvalues ---    0.01240   0.04807   0.11018   0.19659   0.23904
     Eigenvalues ---    0.37338   0.49949   0.66471   0.68431
 Angle between quadratic step and forces=  26.22 degrees.
 Linear search not attempted -- first point.
 Iteration  1 RMS(Cart)=  0.00012325 RMS(Int)=  0.00000001
 Iteration  2 RMS(Cart)=  0.00000000 RMS(Int)=  0.00000000
 Variable       Old X    -DE/DX   Delta X   Delta X   Delta X     New X
                                 (Linear)    (Quad)   (Total)
    R1        2.77344  -0.00002   0.00000  -0.00003  -0.00003   2.77340
    R2        2.78495  -0.00007   0.00000  -0.00009  -0.00009   2.78485
    R3        3.03298  -0.00007   0.00000  -0.00019  -0.00019   3.03279
    R4        1.84175  -0.00002   0.00000  -0.00005  -0.00005   1.84171
    A1        2.33915   0.00002   0.00000   0.00006   0.00006   2.33921
    A2        1.95950   0.00002   0.00000   0.00008   0.00008   1.95959
    A3        1.98453  -0.00004   0.00000  -0.00014  -0.00014   1.98439
    A4        1.93255   0.00000   0.00000   0.00005   0.00005   1.93260
    D1       -3.14153   0.00000   0.00000  -0.00006  -0.00006  -3.14159
    D2        3.14155   0.00000   0.00000   0.00004   0.00004   3.14159
    D3        0.00001   0.00000   0.00000  -0.00001  -0.00001   0.00000
         Item               Value     Threshold  Converged?
 Maximum Force            0.000066     0.000450     YES
 RMS     Force            0.000032     0.000300     YES
 Maximum Displacement     0.000301     0.001800     YES
 RMS     Displacement     0.000123     0.001200     YES
 Predicted change in Energy=-1.393615D-08
 Optimization completed.
    -- Stationary point found.
                           ----------------------------
                           !   Optimized Parameters   !
                           ! (Angstroms and Degrees)  !
 --------------------------                            --------------------------
 ! Name  Definition              Value          Derivative Info.                !
 --------------------------------------------------------------------------------
 ! R1    R(1,2)                  1.4676         -DE/DX =    0.0                 !
 ! R2    R(1,3)                  1.4737         -DE/DX =   -0.0001              !
 ! R3    R(1,4)                  1.605          -DE/DX =   -0.0001              !
 ! R4    R(4,5)                  0.9746         -DE/DX =    0.0                 !
 ! A1    A(2,1,3)              134.0233         -DE/DX =    0.0                 !
 ! A2    A(2,1,4)              112.2713         -DE/DX =    0.0                 !
 ! A3    A(3,1,4)              113.7054         -DE/DX =    0.0                 !
 ! A4    A(1,4,5)              110.7267         -DE/DX =    0.0                 !
 ! D1    D(2,1,3,4)           -179.9965         -DE/DX =    0.0                 !
 ! D2    D(2,1,4,5)            179.9978         -DE/DX =    0.0                 !
 ! D3    D(3,1,4,5)              0.0005         -DE/DX =    0.0                 !
 --------------------------------------------------------------------------------
 GradGradGradGradGradGradGradGradGradGradGradGradGradGradGradGradGradGrad

 1|1|UNPC-DESKTOP-S6NVL3G|Freq|RB3LYP|6-31G(d)|H1O3P1|SHIDUYULE|09-Dec-
 2021|0||#N Geom=AllCheck Guess=TCheck SCRF=Check GenChk RB3LYP/6-31G(d
 ) Freq||HPO3||0,1|P,-1.2322898217,-0.0211931502,-0.0475898458|O,0.1986
 172468,-0.013959842,-0.3738111953|O,-2.2455258968,-1.0821832017,0.0921
 681352|O,-1.8047585109,1.4558070086,0.2107142359|H,-2.7550047791,1.424
 8313243,0.4250572999||Version=IA32W-G09RevC.01|State=1-A|HF=-567.64988
 97|RMSD=4.281e-009|RMSF=2.720e-005|ZeroPoint=0.0228149|Thermal=0.02689
 08|Dipole=-0.963088,0.7473548,0.2845506|DipoleDeriv=1.7654571,-0.11484
 67,-0.2105627,-0.2159458,2.0414022,0.1490225,-0.2192928,0.1259326,0.94
 79219,-0.7353693,0.0043511,0.0712264,-0.0278885,-0.5901084,-0.0078812,
 0.0684615,-0.0152435,-0.4420554,-0.7165777,-0.1280568,0.054311,-0.0304
 901,-0.721376,-0.0181581,0.0627232,0.0041103,-0.4443701,-0.6171957,0.3
 420295,0.077909,0.3301051,-1.0694176,-0.1327447,0.0768754,-0.1354562,-
 0.4346891,0.3036856,-0.1034771,0.0071164,-0.0557807,0.3394998,0.009761
 6,0.0112327,0.0206568,0.3731928|Polar=30.4102348,0.5983403,25.8001813,
 -3.1772944,0.6862816,17.0578389|PG=C01 [X(H1O3P1)]|NImag=0||1.10400927
 ,0.19583900,0.70413301,-0.20857011,0.00600467,0.16493504,-0.63436293,-
 0.00968341,0.13433458,0.64996169,-0.01103026,-0.06252775,0.00079620,0.
 00244207,0.05329317,0.13422191,0.00048895,-0.07319471,-0.14438439,0.00
 258341,0.05012771,-0.34399477,-0.28386172,0.04417386,-0.00522272,-0.02
 292444,0.00262391,0.33597612,-0.28420219,-0.36260419,0.03732125,0.0063
 9438,0.01053428,-0.00184174,0.30173668,0.37412052,0.04414168,0.0372410
 3,-0.05008797,0.00515866,0.00485574,0.01418055,-0.04692006,-0.03801427
 ,0.02384745,-0.10944625,0.09607243,0.02602904,-0.01399730,0.03102212,0
 .00758372,0.01268235,-0.01772243,-0.00116257,0.57217370,0.05724779,-0.
 27125332,-0.03375564,-0.00077362,0.00366551,-0.00015186,0.00979422,-0.
 02572218,-0.00569266,-0.06801709,0.32272656,0.02267572,-0.04262056,-0.
 04066931,0.00483815,-0.00741460,0.00573060,0.00121364,0.00059073,0.014
 06830,-0.13197940,0.04167872,0.05375098,-0.01620532,0.00163371,0.00403
 263,0.00362126,0.00049051,-0.00004515,0.00055902,-0.00620643,-0.001217
 71,-0.46141250,0.00174870,0.10325190,0.47343754,0.04214568,-0.00774776
 ,-0.01036648,0.00162058,-0.00496521,-0.00107876,-0.00474474,0.00367156
 ,0.00161016,-0.04135503,-0.02941658,0.00776571,0.00233352,0.03845799,0
 .00753079,-0.00111410,-0.00098305,0.00005300,-0.00082074,0.00315585,-0
 .00109134,0.00194403,-0.00200833,0.09952921,-0.00207855,-0.03288058,-0
 .10602167,0.00206937,0.03271611||0.00002022,-0.00000900,-0.00000006,0.
 00002011,0.00000536,-0.00000620,-0.00002999,-0.00006112,-0.00000033,0.
 00001013,0.00007021,0.00000266,-0.00002046,-0.00000545,0.00000394|||@


 IF GOD HAD MEANT MAN TO SEE THE SUN RISE, HE
 WOULD HAVE SCHEDULED IT FOR A LATER HOUR.
 Job cpu time:  0 days  0 hours  0 minutes 39.0 seconds.
 File lengths (MBytes):  RWF=      6 Int=      0 D2E=      0 Chk=      1 Scr=      1
 Normal termination of Gaussian 09 at Thu Dec 09 11:27:24 2021.
