 Entering Link 1 = D:\G09W\l1.exe PID=      5064.
  
 Copyright (c) 1988,1990,1992,1993,1995,1998,2003,2009,2011,
            Gaussian, Inc.  All Rights Reserved.
  
 This is part of the Gaussian(R) 09 program.  It is based on
 the Gaussian(R) 03 system (copyright 2003, Gaussian, Inc.),
 the Gaussian(R) 98 system (copyright 1998, Gaussian, Inc.),
 the Gaussian(R) 94 system (copyright 1995, Gaussian, Inc.),
 the Gaussian 92(TM) system (copyright 1992, Gaussian, Inc.),
 the Gaussian 90(TM) system (copyright 1990, Gaussian, Inc.),
 the Gaussian 88(TM) system (copyright 1988, Gaussian, Inc.),
 the Gaussian 86(TM) system (copyright 1986, Carnegie Mellon
 University), and the Gaussian 82(TM) system (copyright 1983,
 Carnegie Mellon University). Gaussian is a federally registered
 trademark of Gaussian, Inc.
  
 This software contains proprietary and confidential information,
 including trade secrets, belonging to Gaussian, Inc.
  
 This software is provided under written license and may be
 used, copied, transmitted, or stored only in accord with that
 written license.
  
 The following legend is applicable only to US Government
 contracts under FAR:
  
                    RESTRICTED RIGHTS LEGEND
  
 Use, reproduction and disclosure by the US Government is
 subject to restrictions as set forth in subparagraphs (a)
 and (c) of the Commercial Computer Software - Restricted
 Rights clause in FAR 52.227-19.
  
 Gaussian, Inc.
 340 Quinnipiac St., Bldg. 40, Wallingford CT 06492
  
  
 ---------------------------------------------------------------
 Warning -- This program may not be used in any manner that
 competes with the business of Gaussian, Inc. or will provide
 assistance to any competitor of Gaussian, Inc.  The licensee
 of this program is prohibited from giving any competitor of
 Gaussian, Inc. access to this program.  By using this program,
 the user acknowledges that Gaussian, Inc. is engaged in the
 business of creating and licensing software in the field of
 computational chemistry and represents and warrants to the
 licensee that it is not a competitor of Gaussian, Inc. and that
 it will not use this program in any manner prohibited above.
 ---------------------------------------------------------------
  

 Cite this work as:
 Gaussian 09, Revision C.01,
 M. J. Frisch, G. W. Trucks, H. B. Schlegel, G. E. Scuseria, 
 M. A. Robb, J. R. Cheeseman, G. Scalmani, V. Barone, B. Mennucci, 
 G. A. Petersson, H. Nakatsuji, M. Caricato, X. Li, H. P. Hratchian, 
 A. F. Izmaylov, J. Bloino, G. Zheng, J. L. Sonnenberg, M. Hada, 
 M. Ehara, K. Toyota, R. Fukuda, J. Hasegawa, M. Ishida, T. Nakajima, 
 Y. Honda, O. Kitao, H. Nakai, T. Vreven, J. A. Montgomery, Jr., 
 J. E. Peralta, F. Ogliaro, M. Bearpark, J. J. Heyd, E. Brothers, 
 K. N. Kudin, V. N. Staroverov, T. Keith, R. Kobayashi, J. Normand, 
 K. Raghavachari, A. Rendell, J. C. Burant, S. S. Iyengar, J. Tomasi, 
 M. Cossi, N. Rega, J. M. Millam, M. Klene, J. E. Knox, J. B. Cross, 
 V. Bakken, C. Adamo, J. Jaramillo, R. Gomperts, R. E. Stratmann, 
 O. Yazyev, A. J. Austin, R. Cammi, C. Pomelli, J. W. Ochterski, 
 R. L. Martin, K. Morokuma, V. G. Zakrzewski, G. A. Voth, 
 P. Salvador, J. J. Dannenberg, S. Dapprich, A. D. Daniels, 
 O. Farkas, J. B. Foresman, J. V. Ortiz, J. Cioslowski, 
 and D. J. Fox, Gaussian, Inc., Wallingford CT, 2010.
 
 ******************************************
 Gaussian 09:  IA32W-G09RevC.01 23-Sep-2011
                09-Dec-2021 
 ******************************************
 %chk=C:\Users\shiduyule\Desktop\H4P2O7.chk
 ----------------------------
 # hf/3-21g geom=connectivity
 ----------------------------
 1/38=1,57=2/1;
 2/12=2,17=6,18=5,40=1/2;
 3/5=5,11=9,16=1,25=1,30=1/1,2,3;
 4//1;
 5/5=2,38=5/2;
 6/7=2,8=2,9=2,10=2,28=1/1;
 99/5=1,9=1/99;
 -------------------
 Title Card Required
 -------------------
 Charge =  0 Multiplicity = 1
 Symbolic Z-Matrix:
 P                    -2.57126  -0.32957  -1.13186 
 P                    -1.6713   -2.87517  -1.13186 
 O                    -2.12128  -1.60237  -1.13186 
 O                    -2.00381   0.47562   0.26591 
 O                    -2.24131  -3.68126  -2.52807 
 O                    -1.9987    0.47743  -2.5265 
 H                    -2.52615   1.26464  -2.68044 
 O                    -4.28126  -0.32955  -1.13498 
 H                    -4.60203   0.55807  -0.95935 
 O                    -2.24131  -3.68126   0.26435 
 H                    -1.71986  -4.47361   0.41225 
 O                     0.0387   -2.87519  -1.13186 
 H                     0.35914  -3.77816  -1.19153 
 
                          Input orientation:                          
 ---------------------------------------------------------------------
 Center     Atomic      Atomic             Coordinates (Angstroms)
 Number     Number       Type             X           Y           Z
 ---------------------------------------------------------------------
      1         15           0       -2.571265   -0.329571   -1.131858
      2         15           0       -1.671295   -2.875166   -1.131858
      3          8           0       -2.121280   -1.602368   -1.131858
      4          8           0       -2.003809    0.475621    0.265912
      5          8           0       -2.241305   -3.681261   -2.528067
      6          8           0       -1.998704    0.477426   -2.526502
      7          1           0       -2.526146    1.264641   -2.680441
      8          8           0       -4.281262   -0.329549   -1.134984
      9          1           0       -4.602026    0.558069   -0.959354
     10          8           0       -2.241306   -3.681260    0.264351
     11          1           0       -1.719862   -4.473613    0.412248
     12          8           0        0.038705   -2.875188   -1.131857
     13          1           0        0.359140   -3.778160   -1.191534
 ---------------------------------------------------------------------
                    Distance matrix (angstroms):
                    1          2          3          4          5
     1  P    0.000000
     2  P    2.700000   0.000000
     3  O    1.350000   1.350000   0.000000
     4  O    1.710000   3.645833   2.507110   0.000000
     5  O    3.645833   1.710000   2.507110   5.014218   0.000000
     6  O    1.710000   3.645833   2.507110   2.792419   4.165757
     7  H    2.222983   4.501875   3.283560   3.094573   4.956439
     8  O    1.710000   3.645833   2.507110   2.792418   4.163662
     9  H    2.222983   4.517305   3.294138   2.873815   5.099586
    10  O    3.645833   1.710000   2.507110   4.163660   2.792418
    11  H    4.503581   2.222983   3.284729   4.959532   3.089527
    12  O    3.645834   1.710000   2.507110   4.165758   2.792418
    13  H    4.525882   2.222977   3.300018   5.079599   2.925410
                    6          7          8          9         10
     6  O    0.000000
     7  H    0.960000   0.000000
     8  O    2.792418   2.830249   0.000000
     9  H    3.039695   2.787591   0.960000   0.000000
    10  O    5.014218   5.763235   4.165757   5.004235   0.000000
    11  H    5.764268   6.568286   5.111552   5.958690   0.960000
    12  O    4.163662   5.110259   5.014219   5.775239   2.792418
    13  H    5.044956   5.997630   5.781821   6.593175   2.981830
                   11         12         13
    11  H    0.000000
    12  O    2.834040   0.000000
    13  H    2.716251   0.960000   0.000000
 Stoichiometry    H4O7P2
 Framework group  C1[X(H4O7P2)]
 Deg. of freedom    33
 Full point group                 C1      NOp   1
 Largest Abelian subgroup         C1      NOp   1
 Largest concise Abelian subgroup C1      NOp   1
                         Standard orientation:                         
 ---------------------------------------------------------------------
 Center     Atomic      Atomic             Coordinates (Angstroms)
 Number     Number       Type             X           Y           Z
 ---------------------------------------------------------------------
      1         15           0       -1.348506    0.000837   -0.067437
      2         15           0        1.348033   -0.002491    0.069179
      3          8           0       -0.000237   -0.000827    0.000871
      4          8           0       -1.836714    0.225265   -1.690824
      5          8           0        1.836223   -0.223824    1.692996
      6          8           0       -1.950205   -1.493023    0.507404
      7          1           0       -2.880365   -1.400952    0.726321
      8          8           0       -1.966408    1.272376    0.894584
      9          1           0       -2.902023    1.386520    0.712385
     10          8           0        1.949876    1.490193   -0.508555
     11          1           0        2.882410    1.400226   -0.718047
     12          8           0        1.965808   -1.275951   -0.890380
     13          1           0        2.920328   -1.314654   -0.795544
 ---------------------------------------------------------------------
 Rotational constants (GHZ):      1.9441224      0.8054864      0.7994224
 Standard basis: 3-21G (6D, 7F)
 There are    97 symmetry adapted basis functions of A   symmetry.
 Integral buffers will be    262144 words long.
 Raffenetti 1 integral format.
 Two-electron integral symmetry is turned on.
    97 basis functions,   171 primitive gaussians,    97 cartesian basis functions
    45 alpha electrons       45 beta electrons
       nuclear repulsion energy       754.3013061830 Hartrees.



 Warning!  P  atom    1 may be hypervalent but has no d functions.
 Warning!  P  atom    2 may be hypervalent but has no d functions.



 NAtoms=   13 NActive=   13 NUniq=   13 SFac= 1.00D+00 NAtFMM=   60 NAOKFM=F Big=F
 One-electron integrals computed using PRISM.
 NBasis=    97 RedAO= T  NBF=    97
 NBsUse=    97 1.00D-06 NBFU=    97
 Harris functional with IExCor=  205 diagonalized for initial guess.
 ExpMin= 1.23D-01 ExpMax= 1.05D+03 ExpMxC= 1.05D+03 IAcc=1 IRadAn=         1 AccDes= 0.00D+00
 HarFok:  IExCor=  205 AccDes= 0.00D+00 IRadAn=         1 IDoV= 1
 ScaDFX=  1.000000  1.000000  1.000000  1.000000
 FoFCou: FMM=F IPFlag=           0 FMFlag=      100000 FMFlg1=           0
         NFxFlg=           0 DoJE=T BraDBF=F KetDBF=T FulRan=T
         Omega=  0.000000  0.000000  1.000000  0.000000  0.000000 ICntrl=     500 IOpCl=  0
         NMat0=    1 NMatS0=    1 NMatT0=    0 NMatD0=    1 NMtDS0=    0 NMtDT0=    0
         I1Cent=           4 NGrid=           0.
 Petite list used in FoFCou.
 Initial guess orbital symmetries:
       Occupied  (A) (A) (A) (A) (A) (A) (A) (A) (A) (A) (A) (A)
                 (A) (A) (A) (A) (A) (A) (A) (A) (A) (A) (A) (A)
                 (A) (A) (A) (A) (A) (A) (A) (A) (A) (A) (A) (A)
                 (A) (A) (A) (A) (A) (A) (A) (A) (A)
       Virtual   (A) (A) (A) (A) (A) (A) (A) (A) (A) (A) (A) (A)
                 (A) (A) (A) (A) (A) (A) (A) (A) (A) (A) (A) (A)
                 (A) (A) (A) (A) (A) (A) (A) (A) (A) (A) (A) (A)
                 (A) (A) (A) (A) (A) (A) (A) (A) (A) (A) (A) (A)
                 (A) (A) (A) (A)
 The electronic state of the initial guess is 1-A.
 Requested convergence on RMS density matrix=1.00D-08 within 128 cycles.
 Requested convergence on MAX density matrix=1.00D-06.
 Requested convergence on             energy=1.00D-06.
 No special actions if energy rises.
 Keep R1 ints in memory in canonical form, NReq=12145454.
 SCF Done:  E(RHF) =  -1201.24479099     A.U. after   15 cycles
             Convg  =    0.7129D-08             -V/T =  2.0018

 **********************************************************************

            Population analysis using the SCF density.

 **********************************************************************

 Orbital symmetries:
       Occupied  (A) (A) (A) (A) (A) (A) (A) (A) (A) (A) (A) (A)
                 (A) (A) (A) (A) (A) (A) (A) (A) (A) (A) (A) (A)
                 (A) (A) (A) (A) (A) (A) (A) (A) (A) (A) (A) (A)
                 (A) (A) (A) (A) (A) (A) (A) (A) (A)
       Virtual   (A) (A) (A) (A) (A) (A) (A) (A) (A) (A) (A) (A)
                 (A) (A) (A) (A) (A) (A) (A) (A) (A) (A) (A) (A)
                 (A) (A) (A) (A) (A) (A) (A) (A) (A) (A) (A) (A)
                 (A) (A) (A) (A) (A) (A) (A) (A) (A) (A) (A) (A)
                 (A) (A) (A) (A)
 The electronic state is 1-A.
 Alpha  occ. eigenvalues --  -79.67720 -79.67710 -20.65785 -20.53761 -20.53689
 Alpha  occ. eigenvalues --  -20.53679 -20.53596 -20.39770 -20.39733  -7.72174
 Alpha  occ. eigenvalues --   -7.72091  -5.61387  -5.61377  -5.60547  -5.60540
 Alpha  occ. eigenvalues --   -5.60449  -5.60441  -1.70466  -1.44751  -1.42950
 Alpha  occ. eigenvalues --   -1.40269  -1.40153  -1.24218  -1.21045  -1.14622
 Alpha  occ. eigenvalues --   -0.88565  -0.87011  -0.82154  -0.76823  -0.76040
 Alpha  occ. eigenvalues --   -0.70619  -0.67893  -0.67635  -0.61737  -0.60092
 Alpha  occ. eigenvalues --   -0.59766  -0.59111  -0.55127  -0.54989  -0.49034
 Alpha  occ. eigenvalues --   -0.45752  -0.41818  -0.41763  -0.41633  -0.41466
 Alpha virt. eigenvalues --    0.13093   0.15842   0.20918   0.24341   0.25213
 Alpha virt. eigenvalues --    0.26241   0.26869   0.28755   0.30410   0.31988
 Alpha virt. eigenvalues --    0.35014   0.36337   0.45379   0.55821   0.57313
 Alpha virt. eigenvalues --    0.62702   0.67902   0.69254   0.70204   1.08456
 Alpha virt. eigenvalues --    1.20285   1.20478   1.21208   1.21522   1.59519
 Alpha virt. eigenvalues --    1.61763   1.72713   1.75609   1.80028   1.80851
 Alpha virt. eigenvalues --    1.84299   1.87034   1.87343   1.89439   1.90402
 Alpha virt. eigenvalues --    1.92866   1.98354   1.99786   2.00763   2.03452
 Alpha virt. eigenvalues --    2.05777   2.07914   2.08568   2.09987   2.23843
 Alpha virt. eigenvalues --    3.03837   3.04118   3.05255   3.05744   3.06530
 Alpha virt. eigenvalues --    3.45805   3.50875
          Condensed to atoms (all electrons):
              1          2          3          4          5          6
     1  P   12.422348  -0.149242  -0.085731   0.405701  -0.005485   0.200900
     2  P   -0.149242  12.426739  -0.086548  -0.005399   0.407366  -0.001624
     3  O   -0.085731  -0.086548   9.557576  -0.028026  -0.028186  -0.020106
     4  O    0.405701  -0.005399  -0.028026   8.390149   0.000000  -0.012456
     5  O   -0.005485   0.407366  -0.028186   0.000000   8.386008   0.000003
     6  O    0.200900  -0.001624  -0.020106  -0.012456   0.000003   8.366178
     7  H   -0.026276  -0.000020   0.000442  -0.000872   0.000000   0.263679
     8  O    0.195033  -0.001340  -0.018980  -0.012438   0.000002  -0.011225
     9  H   -0.024139   0.000033   0.000556  -0.000832   0.000000  -0.000098
    10  O   -0.001552   0.198107  -0.019864   0.000003  -0.012480   0.000000
    11  H   -0.000019  -0.026338   0.000447   0.000000  -0.000881   0.000000
    12  O   -0.001334   0.194285  -0.018896   0.000002  -0.012470   0.000001
    13  H    0.000017  -0.025010   0.000525   0.000000  -0.000959   0.000000
              7          8          9         10         11         12
     1  P   -0.026276   0.195033  -0.024139  -0.001552  -0.000019  -0.001334
     2  P   -0.000020  -0.001340   0.000033   0.198107  -0.026338   0.194285
     3  O    0.000442  -0.018980   0.000556  -0.019864   0.000447  -0.018896
     4  O   -0.000872  -0.012438  -0.000832   0.000003   0.000000   0.000002
     5  O    0.000000   0.000002   0.000000  -0.012480  -0.000881  -0.012470
     6  O    0.263679  -0.011225  -0.000098   0.000000   0.000000   0.000001
     7  H    0.328095   0.000196  -0.000076   0.000000   0.000000   0.000000
     8  O    0.000196   8.382194   0.264943   0.000001   0.000000   0.000000
     9  H   -0.000076   0.264943   0.318112   0.000000   0.000000   0.000000
    10  O    0.000000   0.000001   0.000000   8.369612   0.263573  -0.011220
    11  H    0.000000   0.000000   0.000000   0.263573   0.329653   0.000232
    12  O    0.000000   0.000000   0.000000  -0.011220   0.000232   8.379856
    13  H    0.000000   0.000000   0.000000  -0.000049   0.000047   0.264742
             13
     1  P    0.000017
     2  P   -0.025010
     3  O    0.000525
     4  O    0.000000
     5  O   -0.000959
     6  O    0.000000
     7  H    0.000000
     8  O    0.000000
     9  H    0.000000
    10  O   -0.000049
    11  H    0.000047
    12  O    0.264742
    13  H    0.322160
 Mulliken atomic charges:
              1
     1  P    2.069781
     2  P    2.068990
     3  O   -1.253210
     4  O   -0.735831
     5  O   -0.732917
     6  O   -0.785252
     7  H    0.434834
     8  O   -0.798386
     9  H    0.441500
    10  O   -0.786129
    11  H    0.433286
    12  O   -0.795197
    13  H    0.438528
 Sum of Mulliken atomic charges =   0.00000
 Mulliken charges with hydrogens summed into heavy atoms:
              1
     1  P    2.069781
     2  P    2.068990
     3  O   -1.253210
     4  O   -0.735831
     5  O   -0.732917
     6  O   -0.350417
     8  O   -0.356886
    10  O   -0.352842
    12  O   -0.356669
 Sum of Mulliken charges with hydrogens summed into heavy atoms =   0.00000
 Electronic spatial extent (au):  <R**2>=           1568.2865
 Charge=              0.0000 electrons
 Dipole moment (field-independent basis, Debye):
    X=              0.0330    Y=              0.1507    Z=             -0.1643  Tot=              0.2254
 Quadrupole moment (field-independent basis, Debye-Ang):
   XX=            -36.4171   YY=            -71.0221   ZZ=            -82.1366
   XY=              0.5494   XZ=            -21.8436   YZ=             -0.2660
 Traceless Quadrupole moment (field-independent basis, Debye-Ang):
   XX=             26.7748   YY=             -7.8301   ZZ=            -18.9447
   XY=              0.5494   XZ=            -21.8436   YZ=             -0.2660
 Octapole moment (field-independent basis, Debye-Ang**2):
  XXX=              1.0112  YYY=              1.1092  ZZZ=             -0.4025  XYY=             -1.3876
  XXY=              1.2090  XXZ=             -1.7485  XZZ=              0.9085  YZZ=             -0.4100
  YYZ=              0.0126  XYZ=              0.5691
 Hexadecapole moment (field-independent basis, Debye-Ang**3):
 XXXX=           -677.1356 YYYY=           -357.5732 ZZZZ=           -372.7958 XXXY=              0.2504
 XXXZ=           -181.5559 YYYX=            -14.1211 YYYZ=             -1.3080 ZZZX=            -61.6728
 ZZZY=              0.1429 XXYY=           -198.0243 XXZZ=           -289.4949 YYZZ=           -116.3760
 XXYZ=             -2.1321 YYXZ=             -5.9041 ZZXY=             16.0944
 N-N= 7.543013061830D+02 E-N=-4.359509953035D+03  KE= 1.199056702086D+03
 1|1|UNPC-DESKTOP-S6NVL3G|SP|RHF|3-21G|H4O7P2|SHIDUYULE|09-Dec-2021|0||
 # hf/3-21g geom=connectivity||Title Card Required||0,1|P,0,-2.5712646,
 -0.32957066,-1.13185802|P,0,-1.67129549,-2.87516599,-1.13185802|O,0,-2
 .12128004,-1.60236832,-1.13185802|O,0,-2.00380867,0.47562073,0.2659118
 5|O,0,-2.24130512,-3.68126068,-2.5280673|O,0,-1.99870365,0.47742555,-2
 .52650173|H,0,-2.52614579,1.26464056,-2.6804411|O,0,-4.28126174,-0.329
 54858,-1.13498418|H,0,-4.60202648,0.55806857,-0.95935449|O,0,-2.241305
 69,-3.68126041,0.26435119|H,0,-1.71986208,-4.47361339,0.41224752|O,0,0
 .03870451,-2.87518764,-1.13185739|H,0,0.35913991,-3.77816046,-1.191533
 62||Version=IA32W-G09RevC.01|State=1-A|HF=-1201.244791|RMSD=7.129e-009
 |Dipole=-0.0031872,-0.0113407,0.0878849|Quadrupole=1.1334869,8.5276691
 ,-9.661156,-16.6595629,1.7490842,-14.6269028|PG=C01 [X(H4O7P2)]||@


 ONE OF THE BENEFITS OF A COLLEGE EDUCATION
 IS TO SHOW THE BOY ITS LITTLE AVAIL 
                                    EMERSON IN 'CULTURE'
 Job cpu time:  0 days  0 hours  0 minutes 11.0 seconds.
 File lengths (MBytes):  RWF=      5 Int=      0 D2E=      0 Chk=      1 Scr=      1
 Normal termination of Gaussian 09 at Thu Dec 09 17:19:39 2021.
