 Entering Link 1 = D:\G09W\l1.exe PID=     17056.
  
 Copyright (c) 1988,1990,1992,1993,1995,1998,2003,2009,2011,
            Gaussian, Inc.  All Rights Reserved.
  
 This is part of the Gaussian(R) 09 program.  It is based on
 the Gaussian(R) 03 system (copyright 2003, Gaussian, Inc.),
 the Gaussian(R) 98 system (copyright 1998, Gaussian, Inc.),
 the Gaussian(R) 94 system (copyright 1995, Gaussian, Inc.),
 the Gaussian 92(TM) system (copyright 1992, Gaussian, Inc.),
 the Gaussian 90(TM) system (copyright 1990, Gaussian, Inc.),
 the Gaussian 88(TM) system (copyright 1988, Gaussian, Inc.),
 the Gaussian 86(TM) system (copyright 1986, Carnegie Mellon
 University), and the Gaussian 82(TM) system (copyright 1983,
 Carnegie Mellon University). Gaussian is a federally registered
 trademark of Gaussian, Inc.
  
 This software contains proprietary and confidential information,
 including trade secrets, belonging to Gaussian, Inc.
  
 This software is provided under written license and may be
 used, copied, transmitted, or stored only in accord with that
 written license.
  
 The following legend is applicable only to US Government
 contracts under FAR:
  
                    RESTRICTED RIGHTS LEGEND
  
 Use, reproduction and disclosure by the US Government is
 subject to restrictions as set forth in subparagraphs (a)
 and (c) of the Commercial Computer Software - Restricted
 Rights clause in FAR 52.227-19.
  
 Gaussian, Inc.
 340 Quinnipiac St., Bldg. 40, Wallingford CT 06492
  
  
 ---------------------------------------------------------------
 Warning -- This program may not be used in any manner that
 competes with the business of Gaussian, Inc. or will provide
 assistance to any competitor of Gaussian, Inc.  The licensee
 of this program is prohibited from giving any competitor of
 Gaussian, Inc. access to this program.  By using this program,
 the user acknowledges that Gaussian, Inc. is engaged in the
 business of creating and licensing software in the field of
 computational chemistry and represents and warrants to the
 licensee that it is not a competitor of Gaussian, Inc. and that
 it will not use this program in any manner prohibited above.
 ---------------------------------------------------------------
  

 Cite this work as:
 Gaussian 09, Revision C.01,
 M. J. Frisch, G. W. Trucks, H. B. Schlegel, G. E. Scuseria, 
 M. A. Robb, J. R. Cheeseman, G. Scalmani, V. Barone, B. Mennucci, 
 G. A. Petersson, H. Nakatsuji, M. Caricato, X. Li, H. P. Hratchian, 
 A. F. Izmaylov, J. Bloino, G. Zheng, J. L. Sonnenberg, M. Hada, 
 M. Ehara, K. Toyota, R. Fukuda, J. Hasegawa, M. Ishida, T. Nakajima, 
 Y. Honda, O. Kitao, H. Nakai, T. Vreven, J. A. Montgomery, Jr., 
 J. E. Peralta, F. Ogliaro, M. Bearpark, J. J. Heyd, E. Brothers, 
 K. N. Kudin, V. N. Staroverov, T. Keith, R. Kobayashi, J. Normand, 
 K. Raghavachari, A. Rendell, J. C. Burant, S. S. Iyengar, J. Tomasi, 
 M. Cossi, N. Rega, J. M. Millam, M. Klene, J. E. Knox, J. B. Cross, 
 V. Bakken, C. Adamo, J. Jaramillo, R. Gomperts, R. E. Stratmann, 
 O. Yazyev, A. J. Austin, R. Cammi, C. Pomelli, J. W. Ochterski, 
 R. L. Martin, K. Morokuma, V. G. Zakrzewski, G. A. Voth, 
 P. Salvador, J. J. Dannenberg, S. Dapprich, A. D. Daniels, 
 O. Farkas, J. B. Foresman, J. V. Ortiz, J. Cioslowski, 
 and D. J. Fox, Gaussian, Inc., Wallingford CT, 2010.
 
 ******************************************
 Gaussian 09:  IA32W-G09RevC.01 23-Sep-2011
                11-Dec-2021 
 ******************************************
 %chk=C:\Users\shiduyule\Desktop\P6O18-6.chk
 ------------------------------------
 # freq b3lyp/3-21g geom=connectivity
 ------------------------------------
 1/10=4,30=1,38=1,57=2/1,3;
 2/12=2,17=6,18=5,40=1/2;
 3/5=5,11=2,16=1,25=1,30=1,71=2,74=-5/1,2,3;
 4//1;
 5/5=2,38=5,98=1/2;
 8/6=4,10=90,11=11/1;
 11/6=1,8=1,9=11,15=111,16=1/1,2,10;
 10/6=1/2;
 6/7=2,8=2,9=2,10=2,18=1,28=1/1;
 7/8=1,10=1,25=1/1,2,3,16;
 1/10=4,30=1/3;
 99//99;
 ---------
 P6O18?-6?
 ---------
 Charge = -6 Multiplicity = 1
 Symbolic Z-Matrix:
 P                    -3.58515   4.24896  -2.05048 
 O                    -2.61396   4.92326  -2.80022 
 O                    -4.71328   2.80745  -2.21422 
 P                    -3.88824   2.08673  -3.52722 
 O                    -2.73794   1.35245  -3.21472 
 O                    -5.15191   1.23302  -4.30079 
 P                    -6.83737   0.99733  -4.13412 
 O                    -7.28731  -0.32829  -4.15123 
 O                    -7.17275   1.89893  -2.72035 
 P                    -8.84172   1.79848  -2.3618 
 O                    -9.72239   1.95482  -3.43882 
 O                    -8.98885   2.92747  -1.08593 
 P                    -8.0426    3.77713   0.05722 
 O                    -8.56291   4.99199   0.51916 
 O                    -6.52777   3.84724  -0.73301 
 P                    -5.51014   4.95462   0.08078 
 O                    -6.03238   6.23405   0.30511 
 O                    -4.15279   4.95198  -0.69386 
 O                    -7.78042   2.65505   1.1528 
 O                    -5.09368   4.11576   1.37803 
 O                    -3.04935   3.2273   -0.94182 
 O                    -3.6803    3.42006  -4.57751 
 O                    -8.9184    0.40879  -1.57257 
 O                    -7.41225   1.96105  -5.27462 
 

 GradGradGradGradGradGradGradGradGradGradGradGradGradGradGradGradGradGrad
 Berny optimization.
 Initialization pass.
 Trust Radius=3.00D-01 FncErr=1.00D-07 GrdErr=1.00D-07
 Number of steps in this run=      2 maximum allowed number of steps=      2.
 GradGradGradGradGradGradGradGradGradGradGradGradGradGradGradGradGradGrad

                          Input orientation:                          
 ---------------------------------------------------------------------
 Center     Atomic      Atomic             Coordinates (Angstroms)
 Number     Number       Type             X           Y           Z
 ---------------------------------------------------------------------
      1         15           0       -3.585151    4.248957   -2.050484
      2          8           0       -2.613960    4.923262   -2.800218
      3          8           0       -4.713277    2.807452   -2.214222
      4         15           0       -3.888238    2.086729   -3.527222
      5          8           0       -2.737943    1.352450   -3.214725
      6          8           0       -5.151914    1.233022   -4.300791
      7         15           0       -6.837371    0.997325   -4.134116
      8          8           0       -7.287307   -0.328293   -4.151231
      9          8           0       -7.172750    1.898927   -2.720350
     10         15           0       -8.841717    1.798481   -2.361796
     11          8           0       -9.722390    1.954824   -3.438816
     12          8           0       -8.988848    2.927465   -1.085925
     13         15           0       -8.042600    3.777127    0.057223
     14          8           0       -8.562914    4.991987    0.519163
     15          8           0       -6.527768    3.847237   -0.733010
     16         15           0       -5.510145    4.954618    0.080777
     17          8           0       -6.032378    6.234051    0.305108
     18          8           0       -4.152791    4.951985   -0.693857
     19          8           0       -7.780417    2.655046    1.152803
     20          8           0       -5.093681    4.115756    1.378031
     21          8           0       -3.049350    3.227303   -0.941818
     22          8           0       -3.680299    3.420057   -4.577507
     23          8           0       -8.918401    0.408789   -1.572571
     24          8           0       -7.412251    1.961048   -5.274621
 ---------------------------------------------------------------------
                    Distance matrix (angstroms):
                    1          2          3          4          5
     1  P    0.000000
     2  O    1.400000   0.000000
     3  O    1.837774   3.037626   0.000000
     4  P    2.635877   3.193468   1.710000   0.000000
     5  O    3.234651   3.596927   2.649524   1.400000   0.000000
     6  O    4.076088   4.723431   2.650472   1.710000   2.649728
     7  P    5.048917   5.918569   3.387378   3.201953   4.216242
     8  O    6.250626   7.158508   4.495613   4.216087   4.939499
     9  O    4.340764   5.471339   2.670317   3.387378   4.495615
    10  P    5.808032   6.981506   4.252508   5.096887   6.179197
    11  O    6.697478   7.729761   5.226645   5.836312   7.013955
    12  O    5.645942   6.896463   4.423570   5.716904   6.788687
    13  P    4.953171   6.240892   4.145374   5.741465   6.687607
    14  O    5.650956   6.812714   5.202239   6.831277   7.817828
    15  O    3.249017   4.555115   2.562717   4.227780   5.171619
    16  P    2.957336   4.085218   3.242274   4.886003   5.614361
    17  O    3.934251   4.800708   4.452935   6.040229   6.860944
    18  O    1.630000   2.608751   2.687875   4.038271   4.616624
    19  O    5.513787   6.889372   4.557129   6.113482   6.796954
    20  O    3.748083   4.925327   3.841959   5.443487   5.854807
    21  O    1.600000   2.553330   2.136337   2.947703   2.962794
    22  O    2.661198   2.560363   2.650933   1.710000   2.649568
    23  O    6.589298   7.850704   4.883479   5.651431   6.464148
    24  O    5.502388   6.158001   4.167362   3.935462   5.144192
                    6          7          8          9         10
     6  O    0.000000
     7  P    1.710000   0.000000
     8  O    2.649524   1.400000   0.000000
     9  O    2.650472   1.710000   2.649728   0.000000
    10  P    4.206435   2.792914   3.184562   1.710000   0.000000
    11  O    4.706724   3.118265   3.413178   2.649524   1.400000
    12  O    5.284748   4.200686   4.784486   2.650933   1.710000
    13  P    5.815568   5.171769   5.927566   3.463984   3.225722
    14  O    6.999764   6.370858   7.193410   4.689778   4.310005
    15  O    4.632079   4.448075   5.449421   2.856822   3.493523
    16  P    5.759926   5.931865   6.998382   4.466298   5.198725
    17  O    6.855641   6.912164   8.031075   5.408062   5.888891
    18  O    5.276258   5.889116   7.046983   4.748472   5.891743
    19  O    6.218751   5.620398   6.105428   3.992779   3.769942
    20  O    6.368875   6.568777   7.425249   5.102312   5.779606
    21  O    4.436285   5.432556   6.395535   4.682967   6.132649
    22  O    2.650536   4.004164   5.219420   4.237934   5.846291
    23  O    4.723237   3.352397   3.138987   2.566165   1.600000
    24  O    2.566610   1.600000   2.553174   2.566227   3.248746
                   11         12         13         14         15
    11  O    0.000000
    12  O    2.649568   0.000000
    13  P    4.285414   1.710000   0.000000
    14  O    5.121948   2.649524   1.400000   0.000000
    15  O    4.594369   2.650933   1.710000   2.649568   0.000000
    16  P    6.255343   4.191888   2.792914   3.084312   1.710000
    17  O    6.778269   4.648569   3.184166   2.827040   2.649524
    18  O    6.894796   5.257361   4.132194   4.574080   2.619641
    19  O    5.034335   2.558598   1.590000   2.544621   2.558659
    20  O    7.021153   4.759774   3.248896   3.679812   2.566165
    21  O    7.237656   5.948807   5.121810   5.970592   3.539394
    22  O    6.320632   6.372950   6.374786   7.230971   4.803199
    23  O    2.553330   2.566227   3.843041   5.050489   4.271173
    24  O    2.950756   4.578732   5.667808   6.639168   4.996623
                   16         17         18         19         20
    16  P    0.000000
    17  O    1.400000   0.000000
    18  O    1.562842   2.484849   0.000000
    19  O    3.404615   4.072284   4.673943   0.000000
    20  O    1.600000   2.553330   2.424309   3.066423   0.000000
    21  O    3.175662   4.415180   2.062424   5.205565   3.217194
    22  O    5.234771   6.106617   4.201522   7.087500   6.160364
    23  O    5.917291   6.766719   6.642575   3.710572   6.089019
    24  O    6.423376   7.162120   6.368137   6.475257   7.367246
                   21         22         23         24
    21  O    0.000000
    22  O    3.695062   0.000000
    23  O    6.541225   6.747969   0.000000
    24  O    6.277856   4.067203   4.287559   0.000000
 Stoichiometry    O18P6(6-)
 Framework group  C1[X(O18P6)]
 Deg. of freedom    66
 Full point group                 C1      NOp   1
 Largest Abelian subgroup         C1      NOp   1
 Largest concise Abelian subgroup C1      NOp   1
                         Standard orientation:                         
 ---------------------------------------------------------------------
 Center     Atomic      Atomic             Coordinates (Angstroms)
 Number     Number       Type             X           Y           Z
 ---------------------------------------------------------------------
      1         15           0        2.303025   -1.618285   -0.345459
      2          8           0        2.949130   -2.658599   -1.023910
      3          8           0        0.641064   -1.222711    0.331903
      4         15           0        0.065507   -2.832930    0.337179
      5          8           0        0.481653   -3.641416    1.401685
      6          8           0       -1.619982   -2.596427    0.171976
      7         15           0       -2.726225   -1.307660   -0.026530
      8          8           0       -3.825187   -1.288763    0.840607
      9          8           0       -1.687143    0.049311    0.028583
     10         15           0       -2.606069    1.479722   -0.154720
     11          8           0       -3.584817    1.469279   -1.155692
     12          8           0       -1.378887    2.661681   -0.299969
     13         15           0        0.289118    2.894051   -0.003548
     14          8           0        0.937921    3.846572   -0.798381
     15          8           0        0.881933    1.292703   -0.094941
     16         15           0        2.590177    1.319696   -0.167565
     17          8           0        3.160607    2.135744   -1.151777
     18          8           0        3.048579   -0.172695   -0.239071
     19          8           0        0.302469    3.151202    1.565463
     20          8           0        2.971617    1.657272    1.349190
     21          8           0        2.553761   -1.530530    1.232334
     22          8           0        0.494930   -3.357742   -1.232620
     23          8           0       -3.116985    1.728067    1.341037
     24          8           0       -3.052286   -1.400313   -1.590212
 ---------------------------------------------------------------------
 Rotational constants (GHZ):      0.1986793      0.1854896      0.1088175
 Standard basis: 3-21G (6D, 7F)
 There are   240 symmetry adapted basis functions of A   symmetry.
 Integral buffers will be    262144 words long.
 Raffenetti 2 integral format.
 Two-electron integral symmetry is turned on.
   240 basis functions,   432 primitive gaussians,   240 cartesian basis functions
   120 alpha electrons      120 beta electrons
       nuclear repulsion energy      3851.4627342643 Hartrees.



 Warning!  P  atom    1 may be hypervalent but has no d functions.
 Warning!  P  atom    4 may be hypervalent but has no d functions.
 Warning!  P  atom    7 may be hypervalent but has no d functions.
 Warning!  P  atom   10 may be hypervalent but has no d functions.
 Warning!  P  atom   13 may be hypervalent but has no d functions.
 Warning!  P  atom   16 may be hypervalent but has no d functions.



 NAtoms=   24 NActive=   24 NUniq=   24 SFac= 1.00D+00 NAtFMM=   60 NAOKFM=F Big=F
 One-electron integrals computed using PRISM.
 NBasis=   240 RedAO= T  NBF=   240
 NBsUse=   240 1.00D-06 NBFU=   240
 Harris functional with IExCor=  402 diagonalized for initial guess.
 ExpMin= 1.23D-01 ExpMax= 1.05D+03 ExpMxC= 1.05D+03 IAcc=1 IRadAn=         1 AccDes= 0.00D+00
 HarFok:  IExCor=  402 AccDes= 0.00D+00 IRadAn=         1 IDoV= 1
 ScaDFX=  1.000000  1.000000  1.000000  1.000000
 FoFCou: FMM=F IPFlag=           0 FMFlag=      100000 FMFlg1=           0
         NFxFlg=           0 DoJE=T BraDBF=F KetDBF=T FulRan=T
         Omega=  0.000000  0.000000  1.000000  0.000000  0.000000 ICntrl=     500 IOpCl=  0
         NMat0=    1 NMatS0=    1 NMatT0=    0 NMatD0=    1 NMtDS0=    0 NMtDT0=    0
         I1Cent=           4 NGrid=           0.
 Petite list used in FoFCou.
 Initial guess orbital symmetries:
       Occupied  (A) (A) (A) (A) (A) (A) (A) (A) (A) (A) (A) (A)
                 (A) (A) (A) (A) (A) (A) (A) (A) (A) (A) (A) (A)
                 (A) (A) (A) (A) (A) (A) (A) (A) (A) (A) (A) (A)
                 (A) (A) (A) (A) (A) (A) (A) (A) (A) (A) (A) (A)
                 (A) (A) (A) (A) (A) (A) (A) (A) (A) (A) (A) (A)
                 (A) (A) (A) (A) (A) (A) (A) (A) (A) (A) (A) (A)
                 (A) (A) (A) (A) (A) (A) (A) (A) (A) (A) (A) (A)
                 (A) (A) (A) (A) (A) (A) (A) (A) (A) (A) (A) (A)
                 (A) (A) (A) (A) (A) (A) (A) (A) (A) (A) (A) (A)
                 (A) (A) (A) (A) (A) (A) (A) (A) (A) (A) (A) (A)
       Virtual   (A) (A) (A) (A) (A) (A) (A) (A) (A) (A) (A) (A)
                 (A) (A) (A) (A) (A) (A) (A) (A) (A) (A) (A) (A)
                 (A) (A) (A) (A) (A) (A) (A) (A) (A) (A) (A) (A)
                 (A) (A) (A) (A) (A) (A) (A) (A) (A) (A) (A) (A)
                 (A) (A) (A) (A) (A) (A) (A) (A) (A) (A) (A) (A)
                 (A) (A) (A) (A) (A) (A) (A) (A) (A) (A) (A) (A)
                 (A) (A) (A) (A) (A) (A) (A) (A) (A) (A) (A) (A)
                 (A) (A) (A) (A) (A) (A) (A) (A) (A) (A) (A) (A)
                 (A) (A) (A) (A) (A) (A) (A) (A) (A) (A) (A) (A)
                 (A) (A) (A) (A) (A) (A) (A) (A) (A) (A) (A) (A)
 The electronic state of the initial guess is 1-A.
 Requested convergence on RMS density matrix=1.00D-08 within 128 cycles.
 Requested convergence on MAX density matrix=1.00D-06.
 Requested convergence on             energy=1.00D-06.
 No special actions if energy rises.
 Integral accuracy reduced to 1.0D-05 until final iterations.
 EnCoef did     5 forward-backward iterations
 EnCoef did     2 forward-backward iterations
 EnCoef did     3 forward-backward iterations
 Initial convergence to 1.0D-05 achieved.  Increase integral accuracy.
 SCF Done:  E(RB3LYP) =  -3382.67096013     A.U. after   26 cycles
             Convg  =    0.2524D-08             -V/T =  2.0035
 Range of M.O.s used for correlation:     1   240
 NBasis=   240 NAE=   120 NBE=   120 NFC=     0 NFV=     0
 NROrb=    240 NOA=   120 NOB=   120 NVA=   120 NVB=   120

 **** Warning!!: The smallest alpha delta epsilon is  0.69461254D-01

 Symmetrizing basis deriv contribution to polar:
 IMax=3 JMax=2 DiffMx= 0.00D+00
 G2DrvN: will do    25 centers at a time, making    1 passes doing MaxLOS=1.
 Calling FoFCou, ICntrl=  3107 FMM=F I1Cent=   0 AccDes= 0.00D+00.
 FoFDir/FoFCou used for L=0 through L=1.
 End of G2Drv Frequency-dependent properties file   721 does not exist.
 End of G2Drv Frequency-dependent properties file   722 does not exist.
          IDoAtm=111111111111111111111111
          Differentiating once with respect to electric field.
                with respect to dipole field.
          Differentiating once with respect to nuclear coordinates.
          There are    75 degrees of freedom in the 1st order CPHF.  IDoFFX=5.
     72 vectors produced by pass  0 Test12= 1.92D-14 1.33D-09 XBig12= 2.00D+02 5.49D+00.
 AX will form    72 AO Fock derivatives at one time.
     72 vectors produced by pass  1 Test12= 1.92D-14 1.33D-09 XBig12= 4.46D+01 9.99D-01.
     72 vectors produced by pass  2 Test12= 1.92D-14 1.33D-09 XBig12= 2.77D-01 9.40D-02.
     72 vectors produced by pass  3 Test12= 1.92D-14 1.33D-09 XBig12= 1.70D-03 7.29D-03.
     72 vectors produced by pass  4 Test12= 1.92D-14 1.33D-09 XBig12= 5.77D-06 3.51D-04.
     72 vectors produced by pass  5 Test12= 1.92D-14 1.33D-09 XBig12= 9.20D-09 1.24D-05.
     33 vectors produced by pass  6 Test12= 1.92D-14 1.33D-09 XBig12= 1.17D-11 2.86D-07.
      3 vectors produced by pass  7 Test12= 1.92D-14 1.33D-09 XBig12= 1.39D-14 9.84D-09.
 Inverted reduced A of dimension   468 with in-core refinement.
 Isotropic polarizability for W=    0.000000      152.86 Bohr**3.
 End of Minotr Frequency-dependent properties file   721 does not exist.
 End of Minotr Frequency-dependent properties file   722 does not exist.

 **********************************************************************

            Population analysis using the SCF density.

 **********************************************************************

 Orbital symmetries:
       Occupied  (A) (A) (A) (A) (A) (A) (A) (A) (A) (A) (A) (A)
                 (A) (A) (A) (A) (A) (A) (A) (A) (A) (A) (A) (A)
                 (A) (A) (A) (A) (A) (A) (A) (A) (A) (A) (A) (A)
                 (A) (A) (A) (A) (A) (A) (A) (A) (A) (A) (A) (A)
                 (A) (A) (A) (A) (A) (A) (A) (A) (A) (A) (A) (A)
                 (A) (A) (A) (A) (A) (A) (A) (A) (A) (A) (A) (A)
                 (A) (A) (A) (A) (A) (A) (A) (A) (A) (A) (A) (A)
                 (A) (A) (A) (A) (A) (A) (A) (A) (A) (A) (A) (A)
                 (A) (A) (A) (A) (A) (A) (A) (A) (A) (A) (A) (A)
                 (A) (A) (A) (A) (A) (A) (A) (A) (A) (A) (A) (A)
       Virtual   (A) (A) (A) (A) (A) (A) (A) (A) (A) (A) (A) (A)
                 (A) (A) (A) (A) (A) (A) (A) (A) (A) (A) (A) (A)
                 (A) (A) (A) (A) (A) (A) (A) (A) (A) (A) (A) (A)
                 (A) (A) (A) (A) (A) (A) (A) (A) (A) (A) (A) (A)
                 (A) (A) (A) (A) (A) (A) (A) (A) (A) (A) (A) (A)
                 (A) (A) (A) (A) (A) (A) (A) (A) (A) (A) (A) (A)
                 (A) (A) (A) (A) (A) (A) (A) (A) (A) (A) (A) (A)
                 (A) (A) (A) (A) (A) (A) (A) (A) (A) (A) (A) (A)
                 (A) (A) (A) (A) (A) (A) (A) (A) (A) (A) (A) (A)
                 (A) (A) (A) (A) (A) (A) (A) (A) (A) (A) (A) (A)
 The electronic state is 1-A.
 Alpha  occ. eigenvalues --  -75.95340 -75.94931 -75.94264 -75.94098 -75.93099
 Alpha  occ. eigenvalues --  -75.92951 -18.30693 -18.30517 -18.29805 -18.29756
 Alpha  occ. eigenvalues --  -18.28781 -18.27509 -18.27375 -18.26967 -18.26505
 Alpha  occ. eigenvalues --  -18.26478 -18.25969 -18.23911 -18.19997 -18.19756
 Alpha  occ. eigenvalues --  -18.19195 -18.17961 -18.16319 -18.10875  -5.92086
 Alpha  occ. eigenvalues --   -5.91652  -5.91060  -5.90841  -5.90089  -5.89981
 Alpha  occ. eigenvalues --   -4.08574  -4.08343  -4.08144  -4.08116  -4.07909
 Alpha  occ. eigenvalues --   -4.07684  -4.07553  -4.07367  -4.07332  -4.07084
 Alpha  occ. eigenvalues --   -4.07052  -4.06879  -4.06549  -4.06509  -4.06337
 Alpha  occ. eigenvalues --   -4.06261  -4.06036  -4.05884  -0.36014  -0.34923
 Alpha  occ. eigenvalues --   -0.33605  -0.32466  -0.32251  -0.31091  -0.27047
 Alpha  occ. eigenvalues --   -0.25676  -0.24769  -0.24179  -0.23161  -0.22348
 Alpha  occ. eigenvalues --   -0.15401  -0.14325  -0.13423  -0.12395  -0.11896
 Alpha  occ. eigenvalues --   -0.08243   0.11103   0.11912   0.13279   0.18984
 Alpha  occ. eigenvalues --    0.20658   0.25465   0.26146   0.27272   0.28465
 Alpha  occ. eigenvalues --    0.30305   0.30794   0.31939   0.32321   0.32436
 Alpha  occ. eigenvalues --    0.32771   0.33541   0.34293   0.34439   0.34895
 Alpha  occ. eigenvalues --    0.35424   0.36131   0.36449   0.38671   0.39364
 Alpha  occ. eigenvalues --    0.39979   0.40595   0.40978   0.41294   0.41847
 Alpha  occ. eigenvalues --    0.42107   0.42534   0.42675   0.42980   0.43791
 Alpha  occ. eigenvalues --    0.44625   0.44723   0.45535   0.45844   0.46232
 Alpha  occ. eigenvalues --    0.47000   0.47524   0.51262   0.51333   0.51610
 Alpha  occ. eigenvalues --    0.52271   0.52381   0.52485   0.53000   0.53232
 Alpha  occ. eigenvalues --    0.53459   0.55065   0.55419   0.60437   0.61723
 Alpha virt. eigenvalues --    0.68669   0.75485   0.77993   0.81817   0.83915
 Alpha virt. eigenvalues --    0.85069   0.87429   0.87950   0.88830   0.90564
 Alpha virt. eigenvalues --    0.90889   0.91635   0.92117   0.93112   0.93836
 Alpha virt. eigenvalues --    0.94613   0.95038   0.95582   0.96541   0.97435
 Alpha virt. eigenvalues --    0.99231   1.01400   1.03490   1.06828   1.09298
 Alpha virt. eigenvalues --    1.09720   1.13322   1.16621   1.18001   1.18935
 Alpha virt. eigenvalues --    1.20066   1.21565   1.23279   1.23915   1.25010
 Alpha virt. eigenvalues --    1.27085   1.27569   1.29107   1.31177   1.32004
 Alpha virt. eigenvalues --    1.32662   1.34127   1.36385   1.37373   1.39793
 Alpha virt. eigenvalues --    1.42920   1.43891   1.53627   2.04339   2.05581
 Alpha virt. eigenvalues --    2.08868   2.11806   2.16431   2.16767   2.18754
 Alpha virt. eigenvalues --    2.20297   2.21336   2.22519   2.22962   2.23112
 Alpha virt. eigenvalues --    2.23712   2.24044   2.24606   2.25201   2.25895
 Alpha virt. eigenvalues --    2.26684   2.27031   2.27294   2.28518   2.29748
 Alpha virt. eigenvalues --    2.30137   2.30343   2.30707   2.31551   2.32005
 Alpha virt. eigenvalues --    2.32771   2.33412   2.34334   2.34557   2.35672
 Alpha virt. eigenvalues --    2.36034   2.36549   2.38294   2.38665   2.39770
 Alpha virt. eigenvalues --    2.40433   2.41112   2.43396   2.43482   2.44560
 Alpha virt. eigenvalues --    2.45405   2.46139   2.48426   2.50853   2.53387
 Alpha virt. eigenvalues --    2.56719   2.59019   2.60677   2.63546   2.68684
 Alpha virt. eigenvalues --    2.69487   2.79103   3.40433   3.42483   3.44627
 Alpha virt. eigenvalues --    3.48593   3.50973   3.53299   3.59938   3.63354
 Alpha virt. eigenvalues --    3.68419   3.69341   3.71222   3.80787   3.92236
 Alpha virt. eigenvalues --    3.95671   3.99185   4.01437   4.06081   4.09801
          Condensed to atoms (all electrons):
              1          2          3          4          5          6
     1  P   13.184743   0.196787   0.101674  -0.128283  -0.004956  -0.002146
     2  O    0.196787   8.632193  -0.002679  -0.005818   0.000022   0.000000
     3  O    0.101674  -0.002679   8.533465   0.117949  -0.019470  -0.015664
     4  P   -0.128283  -0.005818   0.117949  13.003153   0.257196   0.103879
     5  O   -0.004956   0.000022  -0.019470   0.257196   8.610993  -0.019498
     6  O   -0.002146   0.000000  -0.015664   0.103879  -0.019498   8.726047
     7  P    0.000078   0.000000   0.005919  -0.031944  -0.002046   0.116854
     8  O    0.000000   0.000000   0.000000  -0.002004   0.000000  -0.019034
     9  O    0.000133   0.000000  -0.000132   0.004603   0.000000  -0.014126
    10  P    0.000053   0.000000   0.000069   0.000115   0.000000  -0.001967
    11  O    0.000000   0.000000   0.000000   0.000002   0.000000   0.000000
    12  O    0.000001   0.000000   0.000000  -0.000001   0.000000   0.000000
    13  P   -0.000094   0.000000   0.000038   0.000003   0.000000   0.000000
    14  O    0.000011   0.000000   0.000000   0.000000   0.000000   0.000000
    15  O    0.010137   0.000000  -0.000572  -0.000102   0.000000   0.000000
    16  P   -0.054033  -0.003432   0.002897   0.001246  -0.000002   0.000002
    17  O   -0.006089   0.000000   0.000000   0.000001   0.000000   0.000000
    18  O    0.085915  -0.020232  -0.012004  -0.001706   0.000000   0.000000
    19  O    0.000001   0.000000   0.000000   0.000000   0.000000   0.000000
    20  O   -0.004598   0.000000  -0.000012   0.000007   0.000000   0.000000
    21  O    0.252233  -0.031430  -0.080243   0.040346  -0.001961  -0.000003
    22  O    0.063056  -0.013801  -0.021061   0.278727  -0.023800  -0.017491
    23  O    0.000000   0.000000   0.000000   0.000001   0.000000   0.000000
    24  O    0.000011   0.000000  -0.000002  -0.002421   0.000000  -0.024898
              7          8          9         10         11         12
     1  P    0.000078   0.000000   0.000133   0.000053   0.000000   0.000001
     2  O    0.000000   0.000000   0.000000   0.000000   0.000000   0.000000
     3  O    0.005919   0.000000  -0.000132   0.000069   0.000000   0.000000
     4  P   -0.031944  -0.002004   0.004603   0.000115   0.000002  -0.000001
     5  O   -0.002046   0.000000   0.000000   0.000000   0.000000   0.000000
     6  O    0.116854  -0.019034  -0.014126  -0.001967   0.000000   0.000000
     7  P   12.803032   0.243554   0.117445  -0.070918   0.011883  -0.001984
     8  O    0.243554   8.645086  -0.020557   0.008058  -0.000265   0.000000
     9  O    0.117445  -0.020557   8.628367   0.110984  -0.020286  -0.014074
    10  P   -0.070918   0.008058   0.110984  12.794250   0.232986   0.120524
    11  O    0.011883  -0.000265  -0.020286   0.232986   8.652922  -0.018703
    12  O   -0.001984   0.000000  -0.014074   0.120524  -0.018703   8.741025
    13  P    0.000031   0.000002   0.004022  -0.024338  -0.001724   0.104560
    14  O    0.000000   0.000000   0.000000  -0.001533   0.000000  -0.017919
    15  O   -0.000005   0.000000   0.000135   0.003087   0.000000  -0.014426
    16  P    0.000023   0.000000  -0.000056   0.000068   0.000000  -0.002412
    17  O    0.000000   0.000000   0.000000   0.000002   0.000000   0.000000
    18  O    0.000001   0.000000   0.000000  -0.000001   0.000000   0.000000
    19  O    0.000001   0.000000  -0.000006  -0.001639   0.000000  -0.026880
    20  O    0.000000   0.000000   0.000000   0.000002   0.000000   0.000000
    21  O    0.000020   0.000000   0.000000   0.000000   0.000000   0.000000
    22  O   -0.002093   0.000000  -0.000001   0.000001   0.000000   0.000000
    23  O   -0.002358  -0.000422  -0.026244   0.383086  -0.033037  -0.025720
    24  O    0.372024  -0.033014  -0.026418   0.001181  -0.001035   0.000000
             13         14         15         16         17         18
     1  P   -0.000094   0.000011   0.010137  -0.054033  -0.006089   0.085915
     2  O    0.000000   0.000000   0.000000  -0.003432   0.000000  -0.020232
     3  O    0.000038   0.000000  -0.000572   0.002897   0.000000  -0.012004
     4  P    0.000003   0.000000  -0.000102   0.001246   0.000001  -0.001706
     5  O    0.000000   0.000000   0.000000  -0.000002   0.000000   0.000000
     6  O    0.000000   0.000000   0.000000   0.000002   0.000000   0.000000
     7  P    0.000031   0.000000  -0.000005   0.000023   0.000000   0.000001
     8  O    0.000002   0.000000   0.000000   0.000000   0.000000   0.000000
     9  O    0.004022   0.000000   0.000135  -0.000056   0.000000   0.000000
    10  P   -0.024338  -0.001533   0.003087   0.000068   0.000002  -0.000001
    11  O   -0.001724   0.000000   0.000000   0.000000   0.000000   0.000000
    12  O    0.104560  -0.017919  -0.014426  -0.002412   0.000000   0.000000
    13  P   12.818169   0.223379   0.112168  -0.071174   0.000056  -0.002634
    14  O    0.223379   8.670822  -0.020250   0.010187  -0.001150   0.000000
    15  O    0.112168  -0.020250   8.652958   0.097202  -0.020127  -0.015545
    16  P   -0.071174   0.010187   0.097202  12.891451   0.251672   0.036001
    17  O    0.000056  -0.001150  -0.020127   0.251672   8.677132  -0.033781
    18  O   -0.002634   0.000000  -0.015545   0.036001  -0.033781   8.927893
    19  O    0.395067  -0.033886  -0.026186  -0.005693   0.000000   0.000000
    20  O    0.006026  -0.000087  -0.026909   0.394691  -0.033316  -0.035836
    21  O   -0.000007   0.000000  -0.000130   0.020187  -0.000004  -0.102727
    22  O    0.000000   0.000000   0.000000   0.000042   0.000000  -0.000002
    23  O   -0.002509   0.000000  -0.000001   0.000000   0.000000   0.000000
    24  O    0.000003   0.000000   0.000000   0.000000   0.000000   0.000000
             19         20         21         22         23         24
     1  P    0.000001  -0.004598   0.252233   0.063056   0.000000   0.000011
     2  O    0.000000   0.000000  -0.031430  -0.013801   0.000000   0.000000
     3  O    0.000000  -0.000012  -0.080243  -0.021061   0.000000  -0.000002
     4  P    0.000000   0.000007   0.040346   0.278727   0.000001  -0.002421
     5  O    0.000000   0.000000  -0.001961  -0.023800   0.000000   0.000000
     6  O    0.000000   0.000000  -0.000003  -0.017491   0.000000  -0.024898
     7  P    0.000001   0.000000   0.000020  -0.002093  -0.002358   0.372024
     8  O    0.000000   0.000000   0.000000   0.000000  -0.000422  -0.033014
     9  O   -0.000006   0.000000   0.000000  -0.000001  -0.026244  -0.026418
    10  P   -0.001639   0.000002   0.000000   0.000001   0.383086   0.001181
    11  O    0.000000   0.000000   0.000000   0.000000  -0.033037  -0.001035
    12  O   -0.026880   0.000000   0.000000   0.000000  -0.025720   0.000000
    13  P    0.395067   0.006026  -0.000007   0.000000  -0.002509   0.000003
    14  O   -0.033886  -0.000087   0.000000   0.000000   0.000000   0.000000
    15  O   -0.026186  -0.026909  -0.000130   0.000000  -0.000001   0.000000
    16  P   -0.005693   0.394691   0.020187   0.000042   0.000000   0.000000
    17  O    0.000000  -0.033316  -0.000004   0.000000   0.000000   0.000000
    18  O    0.000000  -0.035836  -0.102727  -0.000002   0.000000   0.000000
    19  O    8.510979  -0.000503   0.000000   0.000000  -0.000006   0.000000
    20  O   -0.000503   8.524710  -0.000307   0.000000   0.000000   0.000000
    21  O    0.000000  -0.000307   8.755355  -0.000137   0.000000   0.000000
    22  O    0.000000   0.000000  -0.000137   8.534048   0.000000   0.000002
    23  O   -0.000006   0.000000   0.000000   0.000000   8.545491   0.000000
    24  O    0.000000   0.000000   0.000000   0.000002   0.000000   8.556513
 Mulliken atomic charges:
              1
     1  P    1.305366
     2  O   -0.751611
     3  O   -0.610171
     4  P    1.365048
     5  O   -0.796478
     6  O   -0.831955
     7  P    1.440482
     8  O   -0.821404
     9  O   -0.743789
    10  P    1.445929
    11  O   -0.822742
    12  O   -0.843988
    13  P    1.438956
    14  O   -0.829575
    15  O   -0.751434
    16  P    1.431132
    17  O   -0.834396
    18  O   -0.825341
    19  O   -0.811250
    20  O   -0.823868
    21  O   -0.851193
    22  O   -0.797491
    23  O   -0.838281
    24  O   -0.841945
 Sum of Mulliken atomic charges =  -6.00000
 Mulliken charges with hydrogens summed into heavy atoms:
              1
     1  P    1.305366
     2  O   -0.751611
     3  O   -0.610171
     4  P    1.365048
     5  O   -0.796478
     6  O   -0.831955
     7  P    1.440482
     8  O   -0.821404
     9  O   -0.743789
    10  P    1.445929
    11  O   -0.822742
    12  O   -0.843988
    13  P    1.438956
    14  O   -0.829575
    15  O   -0.751434
    16  P    1.431132
    17  O   -0.834396
    18  O   -0.825341
    19  O   -0.811250
    20  O   -0.823868
    21  O   -0.851193
    22  O   -0.797491
    23  O   -0.838281
    24  O   -0.841945
 Sum of Mulliken charges with hydrogens summed into heavy atoms =  -6.00000
 APT atomic charges:
              1
     1  P    1.532686
     2  O   -0.831490
     3  O   -0.746906
     4  P    1.893127
     5  O   -0.923844
     6  O   -1.414770
     7  P    2.083730
     8  O   -0.978855
     9  O   -1.064718
    10  P    2.065122
    11  O   -0.974014
    12  O   -1.362830
    13  P    2.064091
    14  O   -0.965810
    15  O   -1.076359
    16  P    1.919305
    17  O   -0.999147
    18  O   -0.953274
    19  O   -0.857814
    20  O   -0.889158
    21  O   -0.831325
    22  O   -0.885792
    23  O   -0.897703
    24  O   -0.904254
 Sum of APT charges=  -6.00000
 APT Atomic charges with hydrogens summed into heavy atoms:
              1
     1  P    1.532686
     2  O   -0.831490
     3  O   -0.746906
     4  P    1.893127
     5  O   -0.923844
     6  O   -1.414770
     7  P    2.083730
     8  O   -0.978855
     9  O   -1.064718
    10  P    2.065122
    11  O   -0.974014
    12  O   -1.362830
    13  P    2.064091
    14  O   -0.965810
    15  O   -1.076359
    16  P    1.919305
    17  O   -0.999147
    18  O   -0.953274
    19  O   -0.857814
    20  O   -0.889158
    21  O   -0.831325
    22  O   -0.885792
    23  O   -0.897703
    24  O   -0.904254
 Sum of APT charges=  -6.00000
 Electronic spatial extent (au):  <R**2>=           9514.2642
 Charge=             -6.0000 electrons
 Dipole moment (field-independent basis, Debye):
    X=             -0.5680    Y=             -1.2825    Z=             -4.4663  Tot=              4.6814
 Quadrupole moment (field-independent basis, Debye-Ang):
   XX=           -394.5883   YY=           -376.1341   ZZ=           -240.6302
   XY=             -0.9237   XZ=            -10.6934   YZ=            -12.5172
 Traceless Quadrupole moment (field-independent basis, Debye-Ang):
   XX=            -57.4708   YY=            -39.0165   ZZ=             96.4873
   XY=             -0.9237   XZ=            -10.6934   YZ=            -12.5172
 Octapole moment (field-independent basis, Debye-Ang**2):
  XXX=            129.3371  YYY=              0.8230  ZZZ=            -12.1478  XYY=           -106.7154
  XXY=            -27.8344  XXZ=              3.8065  XZZ=              5.9381  YZZ=             -1.1087
  YYZ=             -1.3780  XYZ=             21.3409
 Hexadecapole moment (field-independent basis, Debye-Ang**3):
 XXXX=          -8099.4081 YYYY=          -7320.0293 ZZZZ=           -959.7114 XXXY=            -53.9537
 XXXZ=            -17.2535 YYYX=              7.9205 YYYZ=             -1.0486 ZZZX=            -53.2040
 ZZZY=            -52.0057 XXYY=          -2584.6221 XXZZ=          -1506.7836 YYZZ=          -1413.8737
 XXYZ=            -25.3219 YYXZ=             72.2026 ZZXY=             -3.9453
 N-N= 3.851462734264D+03 E-N=-1.591657670840D+04  KE= 3.370733671401D+03
  Exact polarizability: 178.091   6.557 165.238  -0.787   2.975 115.250
 Approx polarizability: 252.150   8.107 236.462  -0.682  18.463 257.947
 Calling FoFJK, ICntrl=    100127 FMM=F ISym2X=0 I1Cent= 0 IOpClX= 0 NMat=1 NMatS=1 NMatT=0.
 Full mass-weighted force constant matrix:
 Low frequencies --- -421.2729 -382.1335 -363.6236 -336.8608 -327.1820 -321.6139
 Low frequencies --- -316.1390 -315.7329 -302.4833
 ******   14 imaginary frequencies (negative Signs) ****** 
 Harmonic frequencies (cm**-1), IR intensities (KM/Mole), Raman scattering
 activities (A**4/AMU), depolarization ratios for plane and unpolarized
 incident light, reduced masses (AMU), force constants (mDyne/A),
 and normal coordinates:
                     1                      2                      3
                     A                      A                      A
 Frequencies --  -419.9480              -380.5969              -351.9038
 Red. masses --    17.9381                16.4625                17.8915
 Frc consts  --     1.8639                 1.4050                 1.3054
 IR Inten    --     1.7160                19.5365                14.0792
  Atom  AN      X      Y      Z        X      Y      Z        X      Y      Z
     1  15    -0.16  -0.09  -0.25     0.05   0.10  -0.08     0.08   0.10  -0.06
     2   8     0.63  -0.03   0.36    -0.18  -0.47   0.54    -0.14  -0.19   0.16
     3   8    -0.19   0.14   0.18    -0.02  -0.03  -0.09     0.01   0.01   0.06
     4  15     0.01   0.14   0.12    -0.02  -0.04  -0.07     0.08   0.02  -0.01
     5   8    -0.06  -0.28  -0.17     0.11   0.12   0.01    -0.03  -0.13  -0.08
     6   8    -0.02  -0.03  -0.01    -0.02  -0.02  -0.01     0.00  -0.04   0.02
     7  15     0.00   0.00   0.01     0.00   0.00  -0.01     0.01  -0.13   0.01
     8   8     0.01   0.01   0.04    -0.01  -0.01  -0.02     0.05   0.28   0.05
     9   8    -0.01   0.00   0.00     0.00  -0.01   0.00     0.01  -0.05  -0.10
    10  15     0.00   0.00   0.01     0.00   0.00   0.01    -0.03  -0.13   0.02
    11   8    -0.02   0.01   0.02     0.01   0.04   0.00    -0.06   0.27   0.04
    12   8     0.00   0.00   0.00     0.02  -0.02   0.03    -0.06   0.02  -0.02
    13  15     0.01   0.00  -0.01     0.03  -0.03   0.01    -0.17   0.07   0.00
    14   8    -0.02   0.00  -0.02    -0.13   0.09   0.03     0.45  -0.25   0.11
    15   8     0.00   0.00  -0.01     0.03  -0.03   0.00    -0.08   0.05  -0.04
    16  15     0.00  -0.04  -0.03     0.04  -0.04   0.00    -0.13   0.12  -0.04
    17   8    -0.02   0.02   0.00    -0.13   0.24   0.13     0.41  -0.21   0.00
    18   8    -0.03  -0.05   0.02     0.20   0.02  -0.29    -0.04   0.10  -0.03
    19   8     0.02   0.00  -0.01     0.04  -0.04   0.02    -0.13   0.04   0.01
    20   8     0.01  -0.03  -0.02     0.02  -0.12   0.02    -0.12   0.06  -0.02
    21   8    -0.21  -0.02  -0.13    -0.03   0.33  -0.04     0.05   0.06  -0.03
    22   8     0.15   0.22  -0.01    -0.08  -0.06  -0.06    -0.03   0.04  -0.04
    23   8     0.01   0.01   0.01    -0.01  -0.01   0.01     0.05  -0.09   0.04
    24   8    -0.02   0.00   0.02     0.00   0.01  -0.01    -0.04  -0.07   0.02
                     4                      5                      6
                     A                      A                      A
 Frequencies --  -335.7134              -325.8821              -320.2148
 Red. masses --    16.7595                16.4046                16.2356
 Frc consts  --     1.1129                 1.0264                 0.9808
 IR Inten    --   101.2533                30.1974                12.6143
  Atom  AN      X      Y      Z        X      Y      Z        X      Y      Z
     1  15     0.03   0.02   0.01    -0.04  -0.06   0.04     0.03   0.03   0.03
     2   8    -0.04   0.05  -0.09    -0.03   0.08  -0.14    -0.14  -0.07   0.03
     3   8     0.00   0.01   0.06    -0.02  -0.03   0.14     0.00   0.02   0.09
     4  15     0.05   0.02   0.03    -0.10   0.01   0.07    -0.01   0.04   0.03
     5   8    -0.08  -0.10  -0.01     0.51  -0.11  -0.25     0.14  -0.20  -0.21
     6   8    -0.02  -0.06   0.07    -0.08  -0.06   0.22    -0.03  -0.01   0.13
     7  15     0.01  -0.14   0.01     0.00   0.00   0.05     0.01  -0.01   0.01
     8   8    -0.06   0.49  -0.09    -0.18   0.23  -0.19    -0.12   0.25  -0.16
     9   8     0.00  -0.09  -0.09     0.00   0.00   0.08     0.01   0.01   0.01
    10  15    -0.02  -0.14   0.02    -0.01   0.03   0.01     0.02   0.04  -0.03
    11   8     0.19   0.48  -0.19     0.10  -0.16  -0.08    -0.12  -0.31   0.10
    12   8     0.03  -0.11   0.16     0.00   0.01   0.03     0.00   0.03  -0.17
    13  15     0.03  -0.03   0.03     0.02   0.01  -0.01    -0.01  -0.04  -0.04
    14   8    -0.31   0.05  -0.14    -0.08  -0.04  -0.15     0.18   0.19   0.38
    15   8     0.05  -0.03   0.07    -0.03   0.01  -0.07     0.04  -0.03   0.03
    16  15     0.04   0.00   0.03    -0.03  -0.03  -0.02     0.06   0.01   0.02
    17   8    -0.28   0.05  -0.12     0.27   0.15   0.30    -0.35  -0.11  -0.30
    18   8     0.07   0.01   0.07    -0.12  -0.03  -0.17     0.11   0.01   0.11
    19   8     0.11   0.02   0.02     0.04   0.04  -0.02    -0.12  -0.14   0.00
    20   8     0.11   0.03   0.00    -0.11  -0.13   0.04     0.12   0.11  -0.04
    21   8     0.01  -0.04   0.01     0.09   0.05   0.00     0.01  -0.01   0.04
    22   8     0.01   0.03   0.02    -0.11   0.10  -0.01    -0.07   0.10  -0.03
    23   8    -0.06  -0.14   0.00    -0.05   0.05  -0.02     0.07   0.10  -0.02
    24   8    -0.01  -0.12   0.00     0.12  -0.08   0.02     0.09  -0.08  -0.02
                     7                      8                      9
                     A                      A                      A
 Frequencies --  -315.5317              -311.8495              -286.2674
 Red. masses --    16.4976                16.5207                16.2382
 Frc consts  --     0.9677                 0.9466                 0.7840
 IR Inten    --    93.4293                46.9019                24.4069
  Atom  AN      X      Y      Z        X      Y      Z        X      Y      Z
     1  15    -0.08  -0.05  -0.02    -0.09  -0.01  -0.03     0.00  -0.02   0.05
     2   8     0.25   0.18  -0.06     0.19   0.07   0.11    -0.04   0.01  -0.02
     3   8    -0.06  -0.04  -0.15    -0.11  -0.03  -0.17     0.00   0.00   0.09
     4  15    -0.04  -0.08  -0.03    -0.10  -0.09  -0.05    -0.06   0.02   0.02
     5   8     0.10   0.36   0.25     0.52   0.34   0.03     0.18  -0.07  -0.14
     6   8    -0.04  -0.09  -0.04    -0.06  -0.08   0.06    -0.02   0.01  -0.07
     7  15    -0.02  -0.07  -0.04     0.00   0.02   0.03    -0.06   0.02  -0.01
     8   8     0.12   0.45   0.12    -0.13  -0.16  -0.13     0.36  -0.05   0.50
     9   8     0.03  -0.05  -0.17    -0.01  -0.01   0.08    -0.04   0.00  -0.05
    10  15     0.04  -0.03  -0.04    -0.02  -0.02   0.03    -0.04   0.01  -0.04
    11   8    -0.20   0.00   0.18     0.14   0.26  -0.12     0.34   0.01  -0.39
    12   8     0.02  -0.01  -0.13    -0.01   0.00   0.08    -0.01   0.00   0.01
    13  15     0.00  -0.03  -0.04    -0.02   0.01   0.05    -0.01  -0.03  -0.03
    14   8     0.05   0.19   0.25     0.19  -0.11   0.06     0.06   0.17   0.26
    15   8     0.01  -0.01  -0.09    -0.01   0.01   0.10     0.01  -0.01  -0.08
    16  15     0.01  -0.04   0.00     0.01   0.02   0.00     0.01  -0.01  -0.01
    17   8     0.04   0.15   0.17    -0.09  -0.25  -0.26    -0.01   0.01  -0.01
    18   8    -0.05  -0.04  -0.05    -0.02   0.00   0.11    -0.01  -0.01  -0.02
    19   8    -0.06  -0.12  -0.01    -0.03   0.04   0.04    -0.05  -0.12   0.00
    20   8    -0.04  -0.10   0.03     0.07   0.12  -0.04    -0.01  -0.01  -0.01
    21   8    -0.09   0.01  -0.02    -0.17   0.02   0.00     0.04   0.02   0.04
    22   8     0.06  -0.15   0.04    -0.05  -0.10  -0.04    -0.04   0.06  -0.02
    23   8     0.15   0.00   0.01    -0.07  -0.07   0.02    -0.19   0.02  -0.11
    24   8    -0.09  -0.13  -0.01     0.07   0.07   0.01    -0.26  -0.02   0.06
                    10                     11                     12
                     A                      A                      A
 Frequencies --  -283.6076              -280.9979              -264.2568
 Red. masses --    17.0011                16.7121                16.2821
 Frc consts  --     0.8057                 0.7775                 0.6699
 IR Inten    --     1.4388                11.3224                 5.8547
  Atom  AN      X      Y      Z        X      Y      Z        X      Y      Z
     1  15     0.00   0.01  -0.14     0.00  -0.03   0.01    -0.01  -0.04   0.00
     2   8     0.07  -0.03  -0.01    -0.02   0.01  -0.07     0.06   0.12  -0.16
     3   8     0.01   0.01  -0.12     0.02   0.02   0.12     0.02  -0.03   0.09
     4  15     0.09  -0.02  -0.02     0.02   0.03   0.11     0.01   0.01   0.06
     5   8    -0.32   0.13   0.23    -0.06  -0.04   0.08    -0.08  -0.03   0.07
     6   8     0.04  -0.01   0.03     0.02   0.04   0.11     0.01   0.01   0.02
     7  15     0.05  -0.03   0.08     0.02   0.01   0.08     0.01   0.00   0.03
     8   8    -0.16   0.21  -0.18    -0.21  -0.33  -0.20    -0.04  -0.08  -0.03
     9   8    -0.02   0.04   0.26    -0.01  -0.01   0.07    -0.01   0.00   0.02
    10  15    -0.07   0.03   0.12     0.00  -0.05  -0.03    -0.01  -0.01  -0.03
    11   8     0.38  -0.34  -0.30    -0.03   0.45  -0.01     0.05   0.12  -0.08
    12   8    -0.05   0.05   0.13     0.02  -0.07  -0.10    -0.03   0.04  -0.08
    13  15    -0.04   0.00   0.03     0.00  -0.06  -0.11    -0.06   0.03  -0.03
    14   8     0.08   0.05   0.18    -0.04   0.36   0.35     0.48  -0.28   0.03
    15   8    -0.02   0.01  -0.08     0.02  -0.01  -0.27    -0.03  -0.03   0.18
    16  15    -0.03   0.02  -0.07     0.00  -0.01  -0.09     0.01  -0.07   0.03
    17   8     0.10  -0.01  -0.02     0.14   0.05   0.04    -0.43   0.34   0.12
    18   8    -0.03   0.02  -0.08    -0.06  -0.02  -0.09    -0.03  -0.04  -0.31
    19   8     0.00  -0.08   0.05    -0.05  -0.23  -0.06    -0.13   0.12  -0.03
    20   8    -0.02  -0.02  -0.06    -0.07  -0.04  -0.06     0.12  -0.19   0.03
    21   8    -0.02  -0.03  -0.12     0.08  -0.01  -0.01     0.11   0.09  -0.04
    22   8     0.07  -0.10   0.02     0.01   0.02   0.10     0.04   0.00   0.07
    23   8    -0.23   0.12   0.03     0.03  -0.10   0.00    -0.02  -0.02  -0.03
    24   8     0.12  -0.04   0.05     0.12   0.10   0.04     0.02   0.02   0.02
                    13                     14                     15
                     A                      A                      A
 Frequencies --  -199.9286              -115.2118                40.6712
 Red. masses --    17.0384                17.8954                19.0262
 Frc consts  --     0.4013                 0.1400                 0.0185
 IR Inten    --     8.9499                 1.3851                 3.1229
  Atom  AN      X      Y      Z        X      Y      Z        X      Y      Z
     1  15     0.02   0.05  -0.21    -0.08   0.14   0.16    -0.14   0.18  -0.11
     2   8    -0.18  -0.13  -0.14     0.06   0.33   0.03    -0.21   0.16  -0.15
     3   8    -0.06   0.16  -0.07    -0.11  -0.08  -0.31    -0.22   0.13   0.23
     4  15     0.04   0.08   0.05     0.01  -0.12  -0.13    -0.07   0.09   0.12
     5   8     0.13   0.10   0.03    -0.17  -0.31  -0.21    -0.05   0.11   0.13
     6   8     0.01   0.02   0.09     0.02   0.00   0.10    -0.11  -0.11  -0.07
     7  15     0.00  -0.01   0.06     0.01  -0.01   0.13    -0.10  -0.11  -0.07
     8   8     0.00  -0.06   0.05    -0.05   0.01   0.06    -0.07  -0.13  -0.04
     9   8    -0.03   0.01   0.03    -0.01   0.00   0.14    -0.07  -0.12  -0.04
    10  15    -0.02  -0.01  -0.01    -0.01  -0.01   0.04     0.00  -0.09  -0.02
    11   8     0.00   0.03  -0.03     0.03   0.06   0.01    -0.01  -0.15  -0.01
    12   8    -0.01  -0.01  -0.06     0.02  -0.06  -0.06     0.08  -0.16   0.00
    13  15    -0.02  -0.02  -0.07     0.02  -0.07  -0.10     0.05  -0.09   0.07
    14   8     0.11  -0.10  -0.05     0.10  -0.08  -0.05     0.02  -0.10   0.03
    15   8    -0.01  -0.06  -0.08     0.07  -0.08  -0.13     0.24   0.00   0.11
    16  15     0.01  -0.04  -0.01     0.09   0.01  -0.03     0.23   0.09   0.04
    17   8    -0.04   0.28   0.22     0.08   0.12   0.06     0.28  -0.03  -0.03
    18   8     0.43  -0.01   0.49     0.20   0.02   0.06     0.11   0.06  -0.15
    19   8    -0.04  -0.01  -0.07     0.01  -0.09  -0.09     0.01  -0.06   0.06
    20   8    -0.13   0.00   0.05    -0.01   0.05  -0.01     0.31   0.07   0.01
    21   8    -0.16  -0.32  -0.15    -0.34   0.29   0.20    -0.11   0.21  -0.11
    22   8    -0.06   0.03   0.03     0.00  -0.13  -0.11    -0.04   0.11   0.12
    23   8    -0.02   0.01  -0.02     0.00   0.05   0.03     0.00  -0.03  -0.03
    24   8    -0.01  -0.02   0.06     0.02   0.00   0.13    -0.11  -0.08  -0.07
                    16                     17                     18
                     A                      A                      A
 Frequencies --    98.3501               115.7990               120.4746
 Red. masses --    18.7526                18.8371                18.9295
 Frc consts  --     0.1069                 0.1488                 0.1619
 IR Inten    --     2.4829                 1.0949                 1.2670
  Atom  AN      X      Y      Z        X      Y      Z        X      Y      Z
     1  15    -0.15   0.00  -0.14     0.15  -0.07   0.03    -0.01   0.00   0.11
     2   8    -0.18  -0.10  -0.02     0.14  -0.05   0.01     0.01   0.02   0.09
     3   8    -0.13  -0.07  -0.16     0.21   0.16  -0.31     0.00  -0.01   0.13
     4  15     0.01  -0.14   0.01     0.03   0.22  -0.14    -0.12   0.02  -0.04
     5   8    -0.05  -0.21  -0.02    -0.06   0.20  -0.12    -0.09   0.07  -0.01
     6   8     0.02  -0.09   0.14     0.01   0.14   0.12    -0.14  -0.11  -0.15
     7  15     0.08  -0.06   0.09    -0.19  -0.07   0.14    -0.16  -0.10  -0.07
     8   8     0.06  -0.11   0.06    -0.27  -0.05   0.04    -0.17  -0.10  -0.08
     9   8     0.10  -0.06   0.00    -0.13  -0.13   0.10     0.03  -0.24   0.04
    10  15     0.12  -0.06  -0.09     0.00  -0.07  -0.03     0.22  -0.10   0.11
    11   8     0.11  -0.03  -0.07     0.01  -0.01  -0.04     0.28  -0.16   0.05
    12   8     0.08   0.01  -0.14     0.06  -0.17  -0.16     0.10   0.03   0.09
    13  15     0.00   0.23  -0.02     0.00   0.02  -0.05     0.11   0.14  -0.03
    14   8    -0.04   0.31   0.03    -0.03   0.08   0.00     0.20   0.11   0.01
    15   8     0.03   0.24   0.18     0.06   0.05   0.13    -0.09   0.07  -0.18
    16  15     0.01   0.10   0.12     0.05  -0.05   0.14    -0.07   0.03  -0.14
    17   8     0.02   0.04   0.08     0.07  -0.17   0.06    -0.12   0.21  -0.02
    18   8    -0.27   0.03   0.02    -0.01  -0.05  -0.09     0.01   0.03   0.16
    19   8    -0.07   0.34  -0.03    -0.12   0.10  -0.06     0.16   0.15  -0.03
    20   8     0.16   0.00   0.10     0.11  -0.11   0.13    -0.19   0.11  -0.12
    21   8    -0.16  -0.14  -0.12     0.06  -0.05   0.03     0.04   0.01   0.10
    22   8    -0.08  -0.19   0.00    -0.01   0.25  -0.16    -0.04   0.09  -0.04
    23   8     0.15  -0.05  -0.08     0.03   0.02  -0.04     0.27  -0.18   0.14
    24   8     0.10  -0.07   0.09    -0.23  -0.16   0.15    -0.20  -0.08  -0.07
                    19                     20                     21
                     A                      A                      A
 Frequencies --   149.9274               166.5328               191.5435
 Red. masses --    17.6682                17.6151                18.7645
 Frc consts  --     0.2340                 0.2878                 0.4056
 IR Inten    --     8.3384                 8.5608                 0.3698
  Atom  AN      X      Y      Z        X      Y      Z        X      Y      Z
     1  15    -0.06   0.06  -0.01    -0.03  -0.09   0.08     0.06   0.01  -0.02
     2   8    -0.13   0.11  -0.13     0.02  -0.06   0.09     0.03  -0.01  -0.01
     3   8    -0.09   0.19  -0.15     0.08   0.02  -0.22     0.00  -0.07   0.07
     4  15     0.06   0.14   0.08    -0.01   0.04   0.02     0.08  -0.11   0.02
     5   8    -0.01   0.03   0.03    -0.05  -0.03  -0.02     0.11  -0.12   0.00
     6   8     0.09   0.09   0.17     0.07   0.21   0.29     0.05  -0.06  -0.10
     7  15     0.09  -0.01  -0.05    -0.03   0.03  -0.03    -0.09  -0.15  -0.11
     8   8     0.11  -0.08  -0.02    -0.03  -0.08  -0.03    -0.06  -0.11  -0.07
     9   8     0.08   0.01  -0.18    -0.03   0.06  -0.30    -0.32   0.03  -0.01
    10  15     0.06  -0.01  -0.01    -0.07   0.04  -0.09    -0.18   0.12   0.12
    11   8     0.04  -0.07   0.00    -0.15  -0.05  -0.03    -0.15   0.12   0.08
    12   8    -0.03   0.15   0.17    -0.08   0.14   0.25    -0.04   0.09   0.16
    13  15     0.05   0.07   0.00     0.04   0.02   0.14     0.06   0.14  -0.15
    14   8     0.06   0.10   0.04     0.09  -0.06   0.09     0.17   0.21   0.01
    15   8    -0.14  -0.02  -0.06     0.07   0.06  -0.02     0.03   0.09  -0.07
    16  15    -0.14  -0.17   0.08     0.11   0.04  -0.19     0.04   0.00   0.09
    17   8    -0.11  -0.33  -0.04     0.10   0.28  -0.01     0.01  -0.07   0.02
    18   8     0.17  -0.08  -0.20    -0.14  -0.04   0.08     0.07   0.01   0.03
    19   8     0.20   0.03   0.00     0.10  -0.02   0.15     0.29   0.14  -0.14
    20   8    -0.25  -0.23   0.10     0.21   0.07  -0.20     0.09  -0.10   0.09
    21   8    -0.24   0.19   0.03    -0.03  -0.11   0.08     0.04  -0.01  -0.01
    22   8     0.00   0.12   0.08    -0.09   0.00   0.01     0.11  -0.16   0.05
    23   8     0.05  -0.21   0.02    -0.14  -0.25  -0.06    -0.22   0.32   0.08
    24   8     0.11  -0.18  -0.04    -0.03  -0.30   0.00    -0.13  -0.31  -0.09
                    22                     23                     24
                     A                      A                      A
 Frequencies --   193.2642               218.6937               235.3266
 Red. masses --    19.2792                18.3028                18.2734
 Frc consts  --     0.4243                 0.5158                 0.5962
 IR Inten    --    11.3447                 7.2723                12.1691
  Atom  AN      X      Y      Z        X      Y      Z        X      Y      Z
     1  15     0.06   0.07  -0.11    -0.09  -0.07   0.09     0.08  -0.08   0.05
     2   8     0.09   0.06  -0.07    -0.14  -0.05   0.03     0.05   0.01  -0.10
     3   8     0.03  -0.10   0.00    -0.03   0.13  -0.14     0.01  -0.02   0.02
     4  15     0.03  -0.09   0.04     0.04   0.09   0.03    -0.02  -0.03   0.06
     5   8     0.01  -0.12   0.03     0.02   0.04  -0.01     0.03  -0.10  -0.01
     6   8     0.02   0.04   0.12     0.10   0.03   0.04    -0.02  -0.03  -0.11
     7  15    -0.11  -0.04   0.07     0.08  -0.09  -0.19    -0.03   0.03  -0.04
     8   8    -0.16  -0.10   0.01     0.21  -0.10  -0.04    -0.02   0.06  -0.03
     9   8    -0.12  -0.02  -0.09    -0.11  -0.01   0.06    -0.01   0.00   0.03
    10  15     0.12   0.12  -0.19     0.05   0.07   0.20    -0.04  -0.01   0.02
    11   8     0.01   0.09  -0.09     0.20   0.17   0.06    -0.04  -0.01   0.02
    12   8     0.20  -0.01  -0.09     0.09  -0.14  -0.17    -0.01  -0.06   0.01
    13  15     0.10  -0.03   0.27    -0.05  -0.06   0.05    -0.04   0.14   0.13
    14   8    -0.08  -0.09   0.07    -0.09  -0.09  -0.01    -0.11   0.15   0.09
    15   8    -0.11  -0.08   0.10    -0.01  -0.02   0.03     0.03   0.12   0.12
    16  15    -0.12   0.02  -0.06    -0.02  -0.03  -0.11     0.07  -0.19  -0.22
    17   8    -0.04  -0.02  -0.04    -0.01   0.09   0.00     0.16  -0.05  -0.07
    18   8     0.12   0.08  -0.06    -0.17  -0.07  -0.01     0.41  -0.16  -0.01
    19   8     0.05  -0.03   0.27    -0.27  -0.02   0.04    -0.40   0.44   0.08
    20   8    -0.31   0.14  -0.04     0.02   0.00  -0.12    -0.01  -0.17  -0.20
    21   8     0.08   0.11  -0.11    -0.13  -0.06   0.09    -0.06   0.10   0.07
    22   8     0.04  -0.17   0.06     0.00   0.14   0.01     0.08  -0.08   0.10
    23   8     0.18   0.34  -0.21     0.16   0.41   0.18    -0.09  -0.06   0.02
    24   8    -0.17  -0.21   0.09     0.15  -0.31  -0.18    -0.04   0.13  -0.04
                    25                     26                     27
                     A                      A                      A
 Frequencies --   251.6862               278.0307               297.0137
 Red. masses --    18.4786                17.4847                17.4721
 Frc consts  --     0.6897                 0.7963                 0.9081
 IR Inten    --    34.8691                 1.9932                 9.1743
  Atom  AN      X      Y      Z        X      Y      Z        X      Y      Z
     1  15     0.05   0.03  -0.10    -0.05  -0.01   0.05    -0.03   0.02   0.07
     2   8     0.12   0.01  -0.02    -0.20  -0.06   0.01    -0.08   0.02   0.02
     3   8     0.07  -0.08  -0.09     0.00   0.16  -0.26    -0.09   0.01   0.21
     4  15    -0.03  -0.05   0.11     0.22   0.07   0.15     0.07  -0.04  -0.10
     5   8     0.06  -0.16   0.00     0.26  -0.15  -0.03     0.02   0.08   0.02
     6   8     0.02   0.29   0.11     0.16   0.09  -0.30     0.03  -0.17  -0.18
     7  15    -0.12   0.15  -0.13    -0.08   0.00   0.00     0.03  -0.05   0.15
     8   8    -0.09   0.00  -0.10    -0.15   0.10  -0.08    -0.13  -0.06  -0.04
     9   8     0.01   0.05  -0.19    -0.01  -0.06   0.08     0.03   0.06  -0.09
    10  15     0.06   0.08   0.17     0.02  -0.07  -0.04     0.05   0.12  -0.07
    11   8     0.26  -0.03  -0.01    -0.02  -0.07   0.00     0.09   0.05  -0.10
    12   8    -0.12   0.14  -0.06     0.03  -0.04   0.01    -0.21   0.48  -0.04
    13  15    -0.09  -0.06  -0.11     0.00  -0.01   0.04    -0.15   0.06   0.01
    14   8    -0.09  -0.03  -0.07     0.02  -0.05   0.02    -0.14  -0.04  -0.09
    15   8     0.04  -0.03   0.03    -0.03   0.01  -0.03    -0.04   0.05   0.00
    16  15     0.06   0.04   0.12    -0.06   0.02  -0.04     0.00  -0.05  -0.04
    17   8     0.04  -0.06   0.03    -0.04   0.06   0.01     0.05  -0.03   0.00
    18   8     0.08   0.05  -0.03    -0.22  -0.02  -0.03     0.08  -0.05   0.09
    19   8    -0.27  -0.13  -0.10     0.14  -0.09   0.06    -0.09  -0.22   0.05
    20   8     0.04   0.08   0.11     0.08  -0.07  -0.05     0.27  -0.23  -0.06
    21   8     0.07   0.03  -0.09    -0.19  -0.05   0.08    -0.06  -0.02   0.08
    22   8    -0.05  -0.28   0.18     0.30  -0.10   0.24     0.16   0.10  -0.13
    23   8     0.20  -0.21   0.26     0.04   0.01  -0.05     0.25   0.02   0.01
    24   8    -0.26  -0.06  -0.09    -0.29   0.31   0.01    -0.09  -0.18   0.18
                    28                     29                     30
                     A                      A                      A
 Frequencies --   330.0544               357.6076               390.6100
 Red. masses --    18.4082                17.5534                16.9849
 Frc consts  --     1.1815                 1.3226                 1.5269
 IR Inten    --    33.6170                16.6126                56.8917
  Atom  AN      X      Y      Z        X      Y      Z        X      Y      Z
     1  15    -0.18  -0.04   0.00    -0.12   0.15   0.03     0.04  -0.04   0.00
     2   8    -0.20  -0.07   0.02     0.01   0.15   0.14    -0.01  -0.03  -0.07
     3   8    -0.06   0.00   0.12    -0.08   0.01   0.35    -0.03  -0.05  -0.01
     4  15     0.07  -0.06  -0.07     0.11  -0.05  -0.12    -0.01  -0.01  -0.01
     5   8     0.04   0.03   0.01     0.05   0.10   0.01    -0.01   0.01   0.01
     6   8     0.16   0.04  -0.25     0.23   0.40   0.06    -0.02  -0.02  -0.01
     7  15     0.05   0.12   0.12     0.05   0.09   0.00     0.02   0.03  -0.01
     8   8    -0.10   0.07  -0.05    -0.02   0.01  -0.09     0.00  -0.01  -0.03
     9   8     0.02   0.12  -0.06     0.03   0.06  -0.12    -0.04   0.06  -0.07
    10  15     0.00   0.14   0.03    -0.04  -0.08   0.03    -0.09   0.02   0.03
    11   8    -0.01   0.04   0.03     0.03  -0.08  -0.04     0.03  -0.02  -0.09
    12   8     0.09  -0.08   0.01     0.12  -0.34  -0.09    -0.06   0.00  -0.16
    13  15     0.19  -0.10  -0.03    -0.04  -0.02   0.01    -0.02  -0.09  -0.09
    14   8     0.07   0.01   0.00    -0.01   0.00   0.07    -0.02   0.13   0.17
    15   8     0.09  -0.08   0.00    -0.06  -0.02   0.00    -0.22  -0.31   0.51
    16  15     0.11  -0.05   0.04    -0.10   0.00  -0.07    -0.17  -0.06  -0.04
    17   8    -0.02  -0.01   0.00     0.00  -0.02  -0.03     0.15   0.03   0.20
    18   8    -0.10  -0.06  -0.08    -0.01   0.04   0.14     0.05  -0.02   0.03
    19   8    -0.24   0.17  -0.08     0.12   0.14  -0.01     0.32   0.12  -0.13
    20   8    -0.31   0.29   0.06     0.10  -0.37  -0.03     0.18   0.30  -0.21
    21   8     0.02  -0.03  -0.03     0.04  -0.07   0.01    -0.06   0.09   0.02
    22   8     0.29   0.10  -0.10    -0.14  -0.16  -0.18     0.08   0.10  -0.03
    23   8    -0.14  -0.25   0.06     0.02   0.02   0.03     0.10  -0.07   0.11
    24   8    -0.08  -0.30   0.18    -0.14  -0.03   0.04     0.01   0.02   0.00
                    31                     32                     33
                     A                      A                      A
 Frequencies --   404.2186               422.7592               429.1548
 Red. masses --    16.8477                17.2599                17.8839
 Frc consts  --     1.6219                 1.8175                 1.9406
 IR Inten    --    66.6271               132.2062                10.2653
  Atom  AN      X      Y      Z        X      Y      Z        X      Y      Z
     1  15    -0.04   0.00   0.01    -0.04  -0.08   0.02    -0.04   0.04  -0.03
     2   8    -0.05  -0.01   0.02     0.10   0.02  -0.01    -0.02   0.03   0.00
     3   8     0.00  -0.16  -0.06     0.01   0.08   0.07     0.01  -0.13   0.01
     4  15     0.11  -0.16   0.02     0.10   0.04   0.03     0.05  -0.12   0.03
     5   8     0.00  -0.01   0.18     0.02   0.00   0.03     0.01  -0.02   0.13
     6   8    -0.03  -0.15   0.39     0.21   0.10  -0.17     0.04   0.06   0.19
     7  15     0.04  -0.05  -0.03     0.14  -0.11   0.01    -0.01   0.00  -0.10
     8   8    -0.01  -0.06  -0.09     0.01  -0.03  -0.15     0.04   0.02  -0.05
     9   8     0.03   0.00  -0.33     0.19  -0.08   0.04     0.11  -0.06   0.16
    10  15    -0.05   0.00   0.03     0.06  -0.11  -0.03     0.17   0.01   0.06
    11   8     0.04  -0.07  -0.05    -0.03   0.02   0.06     0.02   0.05   0.22
    12   8    -0.03  -0.04   0.18    -0.11   0.18   0.26     0.13   0.07  -0.20
    13  15    -0.02  -0.06  -0.03    -0.02  -0.01  -0.05     0.11   0.17  -0.02
    14   8    -0.01  -0.01   0.04    -0.01   0.05   0.03     0.05   0.07  -0.19
    15   8     0.06  -0.04  -0.09     0.02  -0.08   0.06    -0.10   0.05   0.16
    16  15     0.07   0.00   0.01     0.05  -0.09   0.04    -0.13  -0.05  -0.03
    17   8    -0.01   0.01  -0.03     0.01   0.00   0.10     0.02  -0.04   0.07
    18   8    -0.02  -0.02  -0.01     0.04  -0.10  -0.10     0.06   0.00   0.05
    19   8    -0.08   0.15  -0.06    -0.11   0.02  -0.06    -0.11  -0.34   0.05
    20   8    -0.08   0.00   0.05    -0.04   0.31  -0.04     0.13   0.01  -0.11
    21   8    -0.01  -0.04   0.00    -0.04   0.02   0.02     0.01   0.04  -0.02
    22   8     0.18   0.38  -0.17    -0.54  -0.09  -0.09     0.04   0.22  -0.11
    23   8     0.10   0.22   0.04    -0.03   0.25  -0.13    -0.49  -0.10  -0.14
    24   8    -0.28   0.36  -0.01    -0.24   0.04   0.07    -0.22   0.00  -0.07
                    34                     35                     36
                     A                      A                      A
 Frequencies --   434.1901               439.9323               449.2587
 Red. masses --    18.0415                17.6920                18.4536
 Frc consts  --     2.0039                 2.0174                 2.1944
 IR Inten    --   104.3287                 0.3944                32.7513
  Atom  AN      X      Y      Z        X      Y      Z        X      Y      Z
     1  15    -0.16  -0.01   0.01     0.11  -0.12  -0.02    -0.05   0.17  -0.02
     2   8    -0.08   0.02   0.05    -0.05  -0.13  -0.14    -0.04   0.10   0.11
     3   8    -0.04   0.02   0.20    -0.14   0.05   0.20     0.08   0.04  -0.10
     4  15     0.11  -0.03  -0.11    -0.07   0.09  -0.15    -0.04   0.05  -0.01
     5   8     0.03   0.06  -0.02    -0.04   0.11  -0.16     0.00  -0.02  -0.07
     6   8     0.14   0.31   0.27    -0.09   0.08   0.15    -0.09  -0.05  -0.02
     7  15    -0.20  -0.11  -0.08    -0.01   0.07   0.04    -0.10   0.00   0.01
     8   8     0.02   0.08   0.19    -0.04  -0.05   0.01    -0.04  -0.01   0.07
     9   8    -0.29  -0.16   0.27     0.16  -0.01  -0.24     0.11  -0.09   0.00
    10  15     0.02  -0.06  -0.07     0.07  -0.10   0.04     0.20   0.01  -0.03
    11   8    -0.03   0.00  -0.04     0.03  -0.03   0.09     0.01   0.05   0.15
    12   8    -0.13   0.26   0.05     0.07  -0.19   0.26    -0.01   0.16   0.38
    13  15     0.01   0.01   0.00    -0.05   0.08  -0.03     0.08  -0.22  -0.11
    14   8    -0.01   0.02  -0.01     0.04   0.01  -0.04    -0.04   0.04   0.10
    15   8     0.03  -0.04   0.03    -0.06   0.06  -0.16    -0.13  -0.33   0.15
    16  15     0.09  -0.09   0.00    -0.11  -0.05   0.07    -0.07   0.07  -0.06
    17   8     0.01  -0.01   0.02    -0.05  -0.02   0.14     0.07  -0.01  -0.04
    18   8     0.04  -0.10  -0.09     0.00  -0.04  -0.02    -0.09   0.11   0.09
    19   8    -0.02   0.01   0.00    -0.12  -0.11   0.00    -0.24   0.19  -0.20
    20   8    -0.08   0.18  -0.03     0.22   0.24  -0.06     0.10  -0.28  -0.03
    21   8     0.05  -0.07  -0.03    -0.15   0.11   0.03     0.14  -0.09  -0.06
    22   8     0.20  -0.12  -0.12     0.37  -0.26   0.04     0.11  -0.06   0.10
    23   8     0.16  -0.06  -0.04    -0.07   0.23  -0.06    -0.14   0.11  -0.17
    24   8     0.23   0.20  -0.21     0.04  -0.01   0.04     0.12  -0.05  -0.03
                    37                     38                     39
                     A                      A                      A
 Frequencies --   458.2802               472.2279               485.1178
 Red. masses --    18.2161                17.9657                17.7495
 Frc consts  --     2.2541                 2.3605                 2.4611
 IR Inten    --   140.9500                13.8242               100.8762
  Atom  AN      X      Y      Z        X      Y      Z        X      Y      Z
     1  15     0.06   0.01   0.06     0.00  -0.06   0.02    -0.13   0.04   0.03
     2   8     0.03   0.02   0.03    -0.04  -0.05  -0.02    -0.02   0.07   0.10
     3   8    -0.06   0.28   0.12    -0.07   0.00   0.05     0.08  -0.05  -0.11
     4  15     0.13   0.15  -0.10    -0.11   0.05  -0.08    -0.07  -0.05   0.04
     5   8    -0.04   0.06  -0.12    -0.03   0.06  -0.11     0.02  -0.04   0.01
     6   8    -0.07  -0.29   0.17    -0.08   0.06   0.15     0.02   0.11  -0.20
     7  15     0.03  -0.18   0.04     0.08   0.06  -0.06    -0.07   0.05   0.08
     8   8    -0.01  -0.04  -0.01     0.06  -0.04  -0.10    -0.10  -0.01   0.07
     9   8    -0.11   0.04  -0.29     0.32  -0.05   0.16     0.04  -0.04  -0.29
    10  15    -0.03   0.13   0.08     0.05  -0.14   0.05    -0.05  -0.14   0.03
    11   8     0.05  -0.05   0.01     0.01   0.07   0.09     0.02  -0.04  -0.04
    12   8     0.09   0.08  -0.15    -0.20   0.17  -0.20    -0.03  -0.17   0.18
    13  15     0.16   0.01  -0.02    -0.15  -0.06   0.00    -0.04   0.17  -0.10
    14   8     0.03   0.06  -0.08    -0.06  -0.03   0.11     0.08   0.10  -0.12
    15   8     0.08  -0.02   0.28     0.13   0.04   0.23     0.09   0.17   0.41
    16  15     0.01   0.02  -0.07     0.18   0.08  -0.06     0.04  -0.03  -0.07
    17   8     0.01   0.05  -0.06     0.05   0.08  -0.15     0.04   0.02  -0.04
    18   8    -0.11   0.01  -0.05     0.00  -0.01  -0.03     0.12  -0.04  -0.05
    19   8    -0.09  -0.14  -0.01     0.30   0.06  -0.01     0.00  -0.37  -0.03
    20   8    -0.20  -0.08  -0.01    -0.32  -0.11   0.10    -0.24  -0.02  -0.02
    21   8    -0.03  -0.08   0.05    -0.02  -0.04   0.00     0.14  -0.13  -0.03
    22   8    -0.10  -0.38   0.00     0.26  -0.10   0.06     0.03   0.12   0.06
    23   8    -0.15  -0.10   0.11    -0.14   0.14  -0.07     0.07   0.21   0.02
    24   8    -0.04   0.27   0.02    -0.24  -0.13   0.01     0.25   0.00   0.05
                    40                     41                     42
                     A                      A                      A
 Frequencies --   500.6371               509.7077               559.7384
 Red. masses --    18.1461                17.9863                18.1552
 Frc consts  --     2.6797                 2.7532                 3.3514
 IR Inten    --   111.1647                78.2576                99.8237
  Atom  AN      X      Y      Z        X      Y      Z        X      Y      Z
     1  15     0.23  -0.17  -0.07     0.01   0.04   0.01    -0.25  -0.11  -0.12
     2   8     0.05  -0.19  -0.25    -0.01   0.01   0.03    -0.06  -0.05  -0.07
     3   8    -0.15  -0.17   0.13    -0.02   0.03   0.00     0.20  -0.05  -0.09
     4  15     0.06  -0.04   0.04    -0.08   0.03  -0.03    -0.06   0.09  -0.03
     5   8     0.04   0.02   0.11    -0.04   0.03  -0.06    -0.05   0.04  -0.10
     6   8     0.10   0.21  -0.06    -0.06  -0.08   0.16     0.10   0.03   0.00
     7  15    -0.07   0.00   0.02     0.19   0.06  -0.09     0.08  -0.11   0.03
     8   8    -0.03   0.02   0.07     0.17   0.02  -0.14     0.02   0.00  -0.05
     9   8    -0.11   0.00   0.04    -0.05   0.04   0.42    -0.01  -0.09  -0.09
    10  15     0.05  -0.01  -0.02    -0.16   0.03  -0.14    -0.07  -0.03   0.02
    11   8     0.00  -0.02   0.02    -0.16   0.01  -0.17    -0.01   0.00  -0.04
    12   8     0.04   0.02   0.16     0.05  -0.14   0.33    -0.06   0.07  -0.09
    13  15     0.06  -0.05  -0.07     0.13   0.07  -0.06     0.08   0.00   0.03
    14   8     0.01   0.03  -0.03     0.08   0.09  -0.10     0.02   0.00  -0.02
    15   8     0.08  -0.01   0.20     0.00   0.01   0.18    -0.03   0.03  -0.03
    16  15     0.03   0.16  -0.06    -0.06   0.01  -0.03     0.03  -0.08   0.00
    17   8     0.02   0.09  -0.15     0.01   0.00   0.00    -0.01  -0.04   0.02
    18   8    -0.20   0.08   0.18    -0.01   0.04   0.03    -0.11  -0.04   0.47
    19   8    -0.09  -0.08  -0.08    -0.18  -0.20  -0.04    -0.02   0.00   0.04
    20   8    -0.16  -0.23   0.08    -0.02  -0.07  -0.03     0.02  -0.08   0.04
    21   8    -0.35   0.33   0.09     0.06  -0.02  -0.01     0.34   0.57  -0.05
    22   8    -0.10   0.11  -0.14     0.11  -0.06   0.06     0.06  -0.05   0.09
    23   8     0.05  -0.03  -0.03     0.35  -0.08   0.02    -0.01   0.06   0.05
    24   8     0.11   0.00  -0.03    -0.32  -0.09   0.00    -0.02   0.10   0.05
                    43                     44                     45
                     A                      A                      A
 Frequencies --   591.1960               620.1297               677.7406
 Red. masses --    20.0018                21.3293                17.2014
 Frc consts  --     4.1189                 4.8327                 4.6552
 IR Inten    --    46.1287                 9.0638                41.5353
  Atom  AN      X      Y      Z        X      Y      Z        X      Y      Z
     1  15    -0.11  -0.08  -0.02     0.05   0.07  -0.04    -0.06   0.12  -0.12
     2   8    -0.02  -0.01  -0.04    -0.01   0.02  -0.01    -0.03   0.05   0.02
     3   8     0.12   0.28   0.00     0.09   0.10   0.03     0.61  -0.39   0.22
     4  15     0.26  -0.01   0.05     0.15  -0.02   0.05     0.08   0.10  -0.09
     5   8     0.01  -0.08   0.12     0.03  -0.06   0.09     0.00   0.10  -0.10
     6   8    -0.14  -0.34   0.09    -0.17  -0.10   0.01    -0.04  -0.06   0.03
     7  15    -0.16   0.21  -0.07    -0.17   0.21  -0.04    -0.04  -0.05  -0.01
     8   8    -0.06   0.01   0.07    -0.09  -0.04   0.10    -0.02  -0.01   0.03
     9   8     0.07   0.09   0.11     0.42  -0.04   0.02     0.13   0.04   0.04
    10  15     0.12   0.13  -0.05    -0.27  -0.27   0.05    -0.02   0.10  -0.02
    11   8     0.02   0.04   0.05    -0.09   0.03  -0.15    -0.02   0.01  -0.02
    12   8     0.00  -0.24   0.16    -0.13   0.19  -0.17     0.03  -0.04   0.03
    13  15    -0.24  -0.02  -0.06     0.30   0.02   0.08    -0.05  -0.01  -0.01
    14   8    -0.02  -0.06   0.09     0.05   0.07  -0.09    -0.01  -0.02   0.02
    15   8     0.02   0.20   0.09     0.05  -0.15  -0.06     0.12   0.09   0.03
    16  15     0.05  -0.07  -0.01    -0.03  -0.04   0.00    -0.01  -0.08  -0.01
    17   8     0.00   0.00   0.02    -0.03  -0.02   0.03    -0.03  -0.01   0.05
    18   8    -0.01  -0.08   0.13    -0.14   0.01   0.03    -0.09  -0.05  -0.02
    19   8     0.13  -0.05  -0.09    -0.12   0.03   0.12     0.02   0.00  -0.03
    20   8    -0.05   0.03  -0.01     0.02  -0.02  -0.02    -0.04   0.03  -0.07
    21   8     0.13   0.22   0.03    -0.07   0.03   0.03    -0.41  -0.04   0.09
    22   8    -0.08  -0.15  -0.31    -0.02  -0.07  -0.22    -0.05   0.02   0.24
    23   8     0.02  -0.07  -0.09     0.07   0.17   0.15     0.01  -0.03   0.02
    24   8     0.01  -0.12  -0.13     0.07  -0.14  -0.10     0.00  -0.01  -0.05
                    46                     47                     48
                     A                      A                      A
 Frequencies --   702.6279               720.5919               732.8858
 Red. masses --    18.5315                19.2141                20.2022
 Frc consts  --     5.3903                 5.8783                 6.3933
 IR Inten    --    79.2695                31.3886               117.3966
  Atom  AN      X      Y      Z        X      Y      Z        X      Y      Z
     1  15     0.14   0.13  -0.02     0.05   0.12  -0.04    -0.07  -0.11   0.06
     2   8     0.02   0.04   0.02    -0.05   0.04   0.01    -0.01  -0.03  -0.01
     3   8    -0.30   0.06  -0.06     0.28   0.04   0.00    -0.09  -0.04  -0.04
     4  15     0.02  -0.10  -0.10    -0.26   0.08   0.29    -0.09   0.05   0.09
     5   8     0.00  -0.01  -0.02     0.02  -0.06   0.12     0.00   0.00   0.02
     6   8     0.00   0.07   0.00    -0.03   0.10  -0.07     0.17   0.13   0.00
     7  15    -0.04  -0.06   0.00     0.12  -0.05   0.02    -0.14  -0.30   0.01
     8   8    -0.03  -0.01   0.03     0.07   0.01  -0.08    -0.10  -0.02   0.10
     9   8     0.11   0.06   0.03    -0.17  -0.12  -0.05     0.64  -0.06   0.07
    10  15    -0.01   0.01   0.00     0.02  -0.01   0.01    -0.13   0.30  -0.05
    11   8    -0.01   0.00  -0.01     0.02   0.00   0.03    -0.10   0.02  -0.13
    12   8     0.01   0.10   0.01    -0.04   0.07  -0.01     0.14  -0.09   0.04
    13  15     0.03  -0.18  -0.01     0.03  -0.10   0.00    -0.01  -0.05  -0.02
    14   8    -0.03  -0.09   0.09    -0.02  -0.05   0.05    -0.01  -0.03   0.02
    15   8     0.49   0.42   0.06     0.16   0.23   0.03    -0.07   0.12   0.01
    16  15    -0.18  -0.20  -0.01    -0.08  -0.06   0.00    -0.08   0.13   0.01
    17   8    -0.11  -0.09   0.18    -0.04  -0.04   0.08     0.02   0.02  -0.04
    18   8    -0.17  -0.01   0.12    -0.05   0.02  -0.01     0.20   0.05  -0.07
    19   8     0.03   0.05  -0.12     0.02   0.02  -0.06     0.00  -0.01  -0.06
    20   8    -0.05   0.03  -0.23    -0.01   0.00  -0.11     0.04  -0.01   0.05
    21   8     0.15   0.04  -0.05    -0.11  -0.04   0.06     0.04  -0.04  -0.02
    22   8    -0.05   0.13   0.22     0.21  -0.22  -0.60     0.06  -0.06  -0.16
    23   8     0.01  -0.01   0.01    -0.02   0.01  -0.02     0.01  -0.03   0.17
    24   8     0.01  -0.01  -0.04    -0.01   0.04   0.12     0.03   0.05  -0.15
                    49                     50                     51
                     A                      A                      A
 Frequencies --   761.0917               787.1934               813.6962
 Red. masses --    19.0623                21.9482                18.3973
 Frc consts  --     6.5058                 8.0133                 7.1768
 IR Inten    --    20.2566                22.6810               539.9981
  Atom  AN      X      Y      Z        X      Y      Z        X      Y      Z
     1  15    -0.06  -0.11   0.00     0.21   0.22  -0.11    -0.10  -0.11  -0.02
     2   8     0.03  -0.06  -0.05     0.01   0.02   0.00     0.03  -0.04  -0.04
     3   8     0.29   0.43   0.13     0.08   0.42   0.06     0.29   0.38   0.03
     4  15    -0.07  -0.26  -0.13    -0.18  -0.23  -0.03    -0.08  -0.19  -0.04
     5   8    -0.02  -0.05   0.02     0.01  -0.06   0.06     0.03  -0.05   0.05
     6   8     0.13  -0.04   0.04     0.06   0.13   0.00    -0.19   0.15  -0.03
     7  15     0.03   0.11   0.00     0.00  -0.11   0.02    -0.01  -0.18   0.00
     8   8     0.02   0.03  -0.02    -0.01   0.01   0.02    -0.01  -0.03   0.00
     9   8    -0.06  -0.32  -0.04     0.18  -0.16   0.01     0.01   0.51   0.04
    10  15    -0.02   0.01   0.00     0.00   0.18  -0.03     0.00  -0.13   0.01
    11   8    -0.01   0.02  -0.02    -0.02   0.01  -0.03     0.01  -0.03   0.01
    12   8    -0.13   0.02  -0.02    -0.06  -0.16   0.01     0.25   0.12   0.02
    13  15     0.16  -0.19   0.00    -0.12   0.15  -0.01    -0.08   0.06  -0.01
    14   8     0.00  -0.06   0.05     0.03   0.04  -0.05    -0.02   0.02  -0.01
    15   8    -0.23   0.38   0.04    -0.18  -0.25  -0.02     0.33  -0.25  -0.02
    16  15    -0.08   0.14   0.02     0.27  -0.23  -0.02    -0.15   0.10  -0.01
[...]
 041,0.00109778,-0.00002826,-0.00145326,0.00024971,0.00062298,-0.001448
 52,-0.00015862,0.00084679,0.00212345,-0.00109875,-0.00392334,-0.000451
 11,0.00066727,0.00127430,-0.00211235,0.00151414,0.00340342,0.00107000,
 -0.00617930,-0.00945598,0.00063274,0.00059008,0.00220910,0.01075461,0.
 00714415,0.00756974,-0.05574406,0.00440094,0.00746967,0.00209581,-0.01
 372196,-0.00640649,-0.04501804,-0.10478455,-0.04615614,-0.40487968,1.3
 1790079,0.03616460,-0.00714906,-0.05252562,0.00482164,0.00024160,0.001
 90922,-0.00402723,-0.00087917,0.00590615,0.00042238,-0.00414355,-0.005
 47577,-0.00125675,0.00247686,0.00167027,0.00177532,0.00190473,0.001122
 56,-0.00219443,-0.00186534,-0.00034550,0.00043535,0.00096258,0.0001652
 4,0.00062309,0.00094773,-0.00025469,-0.00144876,-0.00352219,-0.0021361
 2,0.00074455,0.00052334,-0.00001758,0.00448396,0.00281423,-0.00176584,
 -0.01030566,0.00159449,0.03733890,0.00355684,-0.00450236,-0.01083483,-
 0.04553154,-0.05152508,-0.09672931,-0.17096540,0.09014769,0.55558193,0
 .00070238,-0.00715307,-0.01459604,-0.00114472,0.00009315,0.00132969,0.
 00095553,0.00350615,0.00119185,-0.00137849,-0.00379508,-0.00370977,0.0
 0008812,0.00094377,0.00070503,0.00310320,0.00144100,0.00100189,-0.0038
 7651,0.00054862,0.00179670,0.00082738,-0.00017060,-0.00044359,0.002255
 36,-0.00134635,-0.00189851,-0.00190708,0.00330558,0.00417026,0.0003735
 5,-0.00067917,-0.00088645,-0.00073136,-0.00410309,-0.00401912,0.002145
 82,0.01576692,0.00153748,-0.01210659,-0.01239367,0.00023188,0.00766458
 ,-0.01652081,-0.00045390,-0.14473587,0.42983096,0.05980430,0.14778685,
 0.00004141,-0.00063957,0.00454350,0.00178281,0.00190402,-0.00112003,0.
 00008032,-0.00150413,-0.00095229,-0.00033325,0.00119457,0.00207522,0.0
 0051967,-0.00050482,-0.00068199,-0.00040841,-0.00048105,-0.00085380,0.
 00027542,0.00057750,0.00149978,-0.00010512,-0.00043386,-0.00057117,0.0
 0012883,-0.00072307,-0.00136902,0.00097712,0.00171511,0.00265729,-0.00
 063291,-0.00006130,-0.00071562,-0.00274146,-0.00148523,-0.00186946,0.0
 1348840,0.00024543,-0.00492981,-0.00499362,0.00197776,0.00085491,-0.00
 510367,-0.00877262,-0.00189685,0.43601992,-1.02610958,-0.15711212,-0.4
 5017581,1.04119325,-0.00082330,0.00156956,0.01092933,-0.00028226,0.000
 35876,-0.00004208,-0.00004132,-0.00085198,-0.00061410,0.00020120,0.001
 75319,0.00162216,0.00029241,-0.00080761,-0.00040489,-0.00079197,-0.000
 73654,-0.00047064,0.00085589,0.00065606,-0.00003750,-0.00022249,-0.000
 41840,-0.00003076,-0.00046857,-0.00040911,0.00010862,0.00111536,0.0008
 1422,-0.00031074,-0.00034849,-0.00018732,0.00021866,-0.00050239,0.0001
 9710,0.00163476,0.00540879,-0.00034411,-0.01007910,0.00100481,0.001195
 37,0.00527077,-0.00001264,-0.01396133,0.00892299,0.07029752,-0.1758378
 1,-0.01342837,-0.07517912,0.17075427,-0.00995335,-0.06886184,0.0400353
 8,0.10137919,-0.00926382,0.00744186,0.02181143,0.00745512,-0.00128601,
 -0.00085764,-0.00744277,-0.00644975,-0.00454095,0.00145396,0.00263132,
 0.00168691,0.00505296,0.00226666,0.00077962,-0.00514449,0.00080634,0.0
 0279939,0.00120041,-0.00015824,-0.00071645,0.00283286,-0.00167480,-0.0
 0272870,-0.00220820,0.00415356,0.00579253,0.00038213,-0.00072360,-0.00
 127596,-0.00301506,-0.00434614,-0.00425585,0.01626713,0.00397838,-0.00
 356467,-0.00394929,-0.00060267,0.00037752,-0.02031452,0.00027812,0.010
 25150,-0.34448949,-0.00194568,0.20117917,-0.01066288,-0.00115007,0.011
 90041,0.46849255,0.04612365,-0.09163295,-0.11925685,-0.00099348,0.0149
 9891,0.00218311,0.00128754,-0.00246497,-0.00391084,0.00293803,0.002683
 85,0.01018857,0.00013875,-0.00209858,-0.00328068,-0.00221007,-0.000878
 61,-0.00119553,0.00255093,0.00026105,-0.00003815,-0.00050936,-0.000202
 81,-0.00011483,-0.00091312,0.00025493,0.00028171,0.00110118,-0.0000711
 4,-0.00008344,-0.00049209,0.00014292,-0.00005303,-0.00110548,0.0003162
 2,0.00021403,0.00289867,-0.00398855,-0.00292962,0.00010473,0.00220894,
 0.00088214,-0.01299755,0.00056289,0.00479237,-0.00622543,-0.01582854,-
 0.01339055,0.02231181,0.00815425,-0.01179304,-0.12648355,0.16279168,0.
 10248024,-0.11727769,-0.17811746,-0.00479575,-0.01005971,-0.00685114,0
 .00650035,0.00299488,-0.01112334,0.00191087,0.00800204,0.00870204,-0.0
 0042488,-0.00274980,-0.00197761,-0.00444523,-0.00256923,-0.00088166,0.
 00565902,0.00015069,-0.00195777,-0.00119278,-0.00024604,0.00040610,-0.
 00271862,0.00113102,0.00210587,0.00253662,-0.00239790,-0.00388667,-0.0
 0069710,0.00045671,0.00090726,0.00121902,0.00272960,0.00353842,-0.0077
 9513,-0.00508853,-0.00320415,0.00263372,0.00195007,0.00068926,0.001948
 96,0.00187860,0.00557363,0.20840523,-0.01791159,-0.13848681,0.02428461
 ,-0.00684371,-0.00112006,-0.37418482,0.14927319,0.34319760,0.00179073,
 -0.00205358,-0.00249606,-0.00093587,0.00002798,0.00076456,-0.00018030,
 0.00177755,0.00117051,-0.00104805,-0.00245726,-0.00255527,-0.00018398,
 0.00069130,0.00066130,0.00254566,0.00109628,0.00071438,-0.00334639,0.0
 0051854,0.00169366,0.00084894,-0.00001844,-0.00031642,0.00302620,-0.00
 117989,-0.00153648,-0.00557483,0.00564995,0.00665258,0.00051909,-0.000
 99330,-0.00181028,0.00295071,0.00182729,-0.02210791,-0.06775726,0.0455
 6841,-0.03355017,0.01243162,0.01357745,-0.01147605,-0.00629335,-0.0186
 2746,0.02096901,0.00522307,0.01119249,-0.00235969,0.00202457,-0.002992
 67,-0.00002083,-0.00265232,-0.00058991,0.00165555,0.06234553,0.0013670
 3,-0.00194906,-0.00183095,-0.00035764,0.00042461,0.00024215,-0.0003899
 3,0.00174083,0.00076746,-0.00060128,-0.00197203,-0.00110743,-0.0001069
 6,0.00066648,0.00012965,0.00136603,0.00086269,0.00016865,-0.00164676,-
 0.00044076,0.00172759,0.00036860,0.00022154,-0.00062685,0.00120974,0.0
 0083924,-0.00140209,0.00031821,-0.00356313,0.00357235,-0.00034396,0.00
 091290,-0.00125023,-0.00469287,0.01121824,-0.00685674,0.04320696,-0.24
 956241,0.16248106,0.01139751,-0.02241928,0.02931017,-0.00257078,-0.001
 10739,0.00602637,0.00832190,0.00334629,-0.00036656,-0.00217988,-0.0003
 0932,0.00027150,-0.00215490,0.00037346,0.00156193,-0.04735226,0.258106
 39,-0.00150722,-0.00085602,0.00130069,0.00005018,0.00029891,0.00005223
 ,0.00062113,0.00049782,-0.00002248,-0.00125093,-0.00028227,-0.00023408
 ,0.00054732,-0.00023612,-0.00004736,0.00146870,0.00013519,-0.00023348,
 -0.00222472,0.00159791,0.00294913,0.00043562,-0.00079751,-0.00081731,0
 .00197772,-0.00151772,-0.00240236,-0.00234615,0.00912072,0.01062325,-0
 .00054901,-0.00162603,-0.00235080,-0.01625732,0.00524282,-0.02603204,-
 0.03452582,0.17243686,-0.22760524,0.00078167,-0.00890213,0.01162205,0.
 01352492,0.02159707,-0.00647939,-0.00550654,-0.00601785,-0.01164888,0.
 00116532,0.00168759,0.00307729,0.00145560,0.00118782,0.00085671,0.0439
 7483,-0.18983853,0.24495530,-0.00036558,-0.00766457,-0.00076850,-0.002
 45245,0.00034951,0.00196258,0.00105840,0.00434201,0.00156811,-0.001157
 35,-0.00405383,-0.00376870,0.00012956,0.00093661,0.00060529,0.00338172
 ,0.00157207,0.00094526,-0.00428947,0.00062241,0.00234957,0.00090115,-0
 .00025247,-0.00063360,0.00254498,-0.00156486,-0.00245121,-0.00190366,0
 .00385226,0.00511618,0.00019915,-0.00070009,-0.00128888,-0.00288922,-0
 .00398092,-0.00549797,0.01550004,0.00105065,0.00772389,-0.00174993,0.0
 0104232,-0.00136763,-0.00760389,0.00218000,-0.01955456,-0.08400519,0.0
 4946369,-0.06677157,0.01020403,0.01412790,-0.01504022,-0.00133123,-0.0
 0524574,0.02510000,-0.00768190,-0.00425334,-0.00262482,0.07968998,0.00
 213084,-0.00506804,-0.00538692,0.00031159,0.00145223,0.00008332,-0.000
 70951,0.00061606,0.00030001,-0.00007055,-0.00062304,0.00010571,0.00015
 291,0.00019865,-0.00028082,0.00028648,0.00021360,-0.00020734,-0.000376
 09,-0.00000947,0.00097157,0.00005555,-0.00003123,-0.00035513,0.0003053
 5,-0.00001705,-0.00077285,-0.00001465,0.00048393,0.00157238,-0.0002135
 0,-0.00000894,-0.00054785,-0.00122833,-0.00053504,-0.00176082,0.004847
 27,-0.00596982,0.00261405,0.00063740,0.00364848,0.00056983,-0.01106581
 ,0.00648380,-0.01436466,0.05018662,-0.16300185,0.12918732,0.01369390,-
 0.01370410,0.03537225,-0.00170876,0.00761296,0.01582959,-0.00568884,0.
 00051603,-0.00105533,-0.05230305,0.16423721,-0.00270392,0.00750295,0.0
 0826387,0.00155082,-0.00062092,-0.00168722,0.00074618,-0.00148193,-0.0
 0115705,-0.00030950,0.00263589,0.00210146,0.00060352,-0.00102483,-0.00
 042885,-0.00104204,-0.00103263,-0.00077687,0.00113961,0.00083162,0.000
 47850,-0.00027405,-0.00056541,-0.00021010,-0.00043146,-0.00061225,-0.0
 0033101,0.00134899,0.00152181,0.00093212,-0.00052325,-0.00018215,-0.00
 005045,-0.00219378,-0.00120977,0.00080656,0.01007765,0.00083458,-0.012
 68595,-0.00188570,0.00055343,0.00386383,-0.02315981,0.00363353,-0.0120
 9725,-0.07249772,0.13709793,-0.27329723,0.00201296,-0.00132217,0.00686
 527,0.01430941,0.01515193,-0.03421150,0.00023932,0.00016107,0.00456378
 ,0.07115881,-0.15868083,0.31118122,-0.09913359,0.08238995,-0.08889203,
 0.01471316,-0.01912875,0.02152821,-0.06093002,-0.02463927,-0.07012105,
 -0.01833348,0.00478079,0.00463209,0.00561014,0.00089508,0.00266390,-0.
 00076925,-0.00474807,-0.00547640,0.00308903,0.00133028,0.00078720,-0.0
 0043665,-0.00066983,-0.00021380,-0.00125031,-0.00025365,0.00019328,0.0
 0123066,0.00053487,-0.00004061,-0.00078622,-0.00011381,-0.00015760,-0.
 00076109,-0.00043898,-0.00015244,0.00292173,0.00058163,-0.00108709,-0.
 00101761,0.00006732,0.00049745,-0.00242130,-0.00057769,0.00077957,0.01
 030587,0.00071372,-0.00959830,-0.00336453,0.00159804,0.00300816,-0.028
 11213,0.07980778,0.01608926,-0.00071685,-0.00037142,0.00065650,0.00002
 074,0.00079998,0.00242929,0.17682537,0.05394930,-0.17594994,0.13687509
 ,0.01183530,-0.00217540,0.02105242,-0.03394174,0.00873989,-0.01826250,
 0.00688709,-0.00376328,0.01170998,-0.00198195,-0.00133186,-0.00908184,
 -0.00425783,-0.00190845,-0.00295018,0.00472404,-0.00025773,-0.00093394
 ,-0.00109360,-0.00008104,0.00007212,-0.00233023,0.00110749,0.00138697,
 0.00201507,-0.00225207,-0.00283369,-0.00078337,0.00045467,0.00047328,0
 .00105293,0.00226302,0.00220632,-0.00534693,-0.00275106,0.00028620,0.0
 0138840,0.00093929,-0.00010693,0.00566841,0.00432487,-0.00099698,-0.00
 923775,-0.01626425,0.01172937,0.00728200,-0.00171044,-0.00663886,0.085
 58050,-0.08447401,-0.01985989,0.00075143,0.00109488,-0.00022140,0.0005
 2973,0.00325832,-0.00169628,-0.12281687,0.26599624,-0.06972466,0.14355
 011,-0.20267710,-0.01081235,0.01822884,-0.00651815,-0.06309832,-0.0105
 8033,-0.03627475,0.00171904,0.00792139,0.00702279,-0.00213456,-0.00548
 660,-0.00506696,-0.00375947,-0.00308905,-0.00163037,0.00446157,0.00113
 193,-0.00063749,-0.00075497,-0.00049558,0.00018050,-0.00260783,0.00032
 276,0.00146108,0.00201140,-0.00115913,-0.00259800,-0.00076069,0.000175
 23,0.00050209,0.00060304,0.00136292,0.00187341,-0.00309293,-0.00105458
 ,-0.00105391,0.00067838,0.00021198,0.00024805,0.00234974,0.00197999,0.
 00121217,-0.00503283,-0.00020076,0.00129680,0.00194475,-0.00158465,-0.
 00170786,0.01768985,-0.02537348,0.01632470,0.00082718,0.00024850,0.000
 19862,0.00364445,-0.00206307,-0.00073970,0.12657656,-0.12353425,0.2281
 4673,-0.01273968,-0.00718671,0.00107252,0.00095052,-0.01034614,-0.0123
 9636,0.00198982,-0.00412530,0.01630904,-0.07689099,-0.00604567,0.01558
 462,0.00863931,0.02039327,-0.01792827,-0.00307326,-0.01731118,0.005133
 33,0.00531630,0.00152071,-0.00188703,-0.00118440,-0.00137338,0.0002551
 9,-0.00128476,-0.00008716,0.00150746,0.00208658,0.00004089,-0.00158558
 ,-0.00071117,-0.00008853,0.00036789,-0.00010809,0.00045269,0.00096748,
 -0.00039193,-0.00039533,-0.00105780,-0.00006237,0.00016150,0.00033244,
 0.00043334,0.00024421,0.00063284,-0.00178837,-0.00088018,-0.00056133,0
 .00040306,0.00019001,0.00018093,0.00258080,-0.00049036,-0.00217755,0.0
 0005209,-0.00001194,0.00037579,0.00045034,0.00014408,0.00012473,0.0042
 3469,0.00191451,0.00070340,0.07329953,-0.00641447,-0.01163305,0.026673
 95,-0.01097471,-0.00844788,-0.02596971,0.00080638,0.01026042,-0.000942
 68,0.00584025,-0.12784095,0.04490294,-0.00605997,-0.01027455,0.0183188
 0,-0.01620197,-0.01020567,0.00929936,0.01193923,-0.00261881,-0.0031364
 6,-0.00268271,-0.00040343,0.00028215,-0.00298314,0.00169720,0.00196710
 ,0.00284424,-0.00173284,-0.00241845,-0.00072356,0.00051942,0.00054056,
 0.00041302,0.00169134,0.00175138,-0.00266340,-0.00171624,-0.00070188,0
 .00058546,0.00046986,0.00002992,0.00182989,0.00136062,0.00012682,-0.00
 437246,-0.00127880,0.00035675,0.00103073,0.00001556,-0.00047429,0.0029
 1562,0.00118613,-0.00162815,0.00061343,0.00052988,0.00017354,0.0012650
 3,0.00035091,-0.00079461,0.00086616,0.00389165,-0.00046835,0.02493768,
 0.15248127,0.00017504,0.00952767,0.00557928,-0.00620612,-0.01422053,-0
 .01313807,0.00405645,0.00858687,-0.01562132,0.01238897,0.06157184,-0.1
 2103181,0.00154765,0.00909807,0.00602588,-0.00508434,-0.00368861,0.008
 97077,0.00156602,-0.00056082,-0.00382615,-0.00066660,-0.00036972,0.001
 00253,-0.00040997,0.00082896,0.00192471,0.00040588,-0.00086851,-0.0020
 1801,0.00021094,0.00012283,0.00076622,0.00090962,0.00117978,0.00147746
 ,-0.00366828,-0.00107914,-0.00029273,0.00118237,-0.00013243,-0.0002064
 1,0.00339966,0.00036287,-0.00044620,-0.00453911,0.00126367,0.00172872,
 0.00117727,-0.00113446,-0.00056138,0.00251004,-0.00259248,-0.00167916,
 0.00101423,0.00037461,-0.00023680,0.00123428,-0.00035567,-0.00113701,-
 0.00380932,0.00080027,-0.00024102,-0.00625589,-0.06852506,0.13069894,0
 .00025478,0.00204106,0.00076359,-0.00021804,-0.00054480,-0.00004178,-0
 .00071645,-0.00185715,-0.00057944,0.00310398,0.00219623,0.00106581,-0.
 00067246,-0.00025328,0.00003607,-0.00318694,-0.00088842,0.00095060,0.0
 0343840,-0.00047559,-0.01549363,-0.00094435,0.00098281,0.00601575,-0.0
 1386348,-0.02148437,0.02386593,-0.07082084,-0.01768998,0.00183583,0.01
 342000,0.02022821,-0.01749012,0.01274683,0.00165125,0.00145099,-0.0040
 7927,0.00067782,-0.00090150,0.00100284,-0.00011894,0.00016050,0.001532
 40,-0.00008985,-0.00011231,-0.00131161,0.00029801,0.00040687,0.0004467
 9,-0.00044148,-0.00026820,0.00046300,-0.00039422,-0.00061513,0.0017063
 7,-0.00085325,-0.00071460,0.00036242,-0.00024986,-0.00037979,-0.000478
 23,-0.00069276,-0.00048913,-0.00046834,-0.00062744,0.00019142,0.056204
 39,0.00093126,-0.00050929,-0.00103137,-0.00028693,0.00008927,0.0001806
 6,-0.00072809,0.00042684,0.00024495,0.00071134,-0.00139120,-0.00069357
 ,-0.00030538,0.00067119,0.00012228,-0.00001348,0.00177904,0.00102360,-
 0.00220962,-0.01276340,-0.00345885,0.00396775,0.00398424,-0.00373586,-
 0.00649965,0.00285123,0.01308686,-0.01214354,-0.30331095,0.14755360,-0
 .00272905,-0.00213757,0.00450313,-0.00387354,-0.03090460,-0.00611498,0
 .01116333,0.00568832,0.00978968,-0.00113120,-0.00162055,-0.00224907,-0
 .00387726,-0.00167409,-0.00096147,0.00375929,0.00201674,0.00107920,-0.
 00099557,-0.00065441,-0.00023982,-0.00115905,-0.00009054,0.00055776,-0
 .00128285,0.00019005,-0.00240191,-0.00113739,-0.00021794,-0.00054870,-
 0.00050220,0.00045073,0.00003826,-0.00024772,0.00036661,0.00037898,0.0
 1923213,0.33453626,0.00021204,-0.00205413,-0.00151751,-0.00008842,0.00
 030169,0.00038853,0.00067392,0.00173828,0.00091546,-0.00286998,-0.0021
 0059,-0.00231241,0.00058413,0.00019640,0.00049208,0.00457308,0.0014206
 4,0.00083141,-0.00926813,-0.00114869,0.00650070,0.00517092,-0.00042443
 ,-0.00399229,0.00564861,0.00873621,-0.00003996,0.00043441,0.13964186,-
 0.15244319,-0.00332602,0.03341589,-0.00750910,-0.00052547,-0.02112568,
 0.00599926,0.00461648,0.00505054,0.00000362,-0.00044794,-0.00190509,-0
 .00015086,-0.00291978,-0.00149525,0.00103471,0.00298069,0.00154042,-0.
 00038614,-0.00071769,-0.00038902,0.00031031,-0.00111706,0.00011906,0.0
 0094109,-0.00181794,-0.00336564,-0.00102026,-0.00099800,-0.00044502,0.
 00017678,0.00022501,0.00060760,0.00073905,0.00050800,0.00066559,0.0004
 3767,-0.00274036,-0.15935166,0.15186734,0.00029780,0.00389268,0.002741
 58,-0.00029908,-0.00099465,-0.00068241,0.00040571,-0.00311166,-0.00168
 145,0.00741855,0.01002360,0.00760049,-0.00295173,-0.00094986,-0.001539
 34,-0.02772330,0.00968633,-0.02185431,-0.09826910,0.06640379,-0.083412
 67,0.01369454,-0.01057355,0.00374641,0.01176340,0.00071417,0.00095301,
 -0.00610155,0.00021062,-0.01387260,-0.00509661,0.00045825,0.01152845,0
 .00229732,0.00246692,0.00344150,-0.00374339,-0.00204375,-0.00161712,0.
 00081488,0.00038235,0.00029912,0.00257155,0.00100933,0.00002962,-0.003
 51203,-0.00045435,0.00060258,0.00092683,-0.00015137,-0.00026370,0.0012
 6710,-0.00061272,-0.00137646,0.00090652,0.00033120,0.00047184,0.000987
 33,0.00007699,-0.00034027,-0.00044012,-0.00109570,-0.00094163,-0.00173
 301,-0.00218329,-0.00133023,0.00207781,-0.00064257,0.00120950,0.104440
 57,0.00054535,-0.00087389,0.00026758,-0.00005062,0.00039147,-0.0001988
 3,-0.00042179,0.00148861,-0.00013451,-0.00176709,-0.00542258,-0.001670
 87,0.00016929,0.00108306,-0.00007102,0.00349538,0.01069966,0.00451710,
 0.05804721,-0.19422702,0.13604573,0.01462769,-0.01938591,0.03291851,-0
 .00097861,0.00920192,-0.01332546,-0.00015828,-0.00661016,0.00464085,0.
 00172588,0.00356856,-0.00218094,-0.00004887,0.00097284,-0.00050522,0.0
 0027325,-0.00036511,0.00105109,-0.00003830,0.00023460,-0.00029934,-0.0
 0031264,0.00029285,-0.00056560,0.00061565,-0.00016344,0.00049008,-0.00
 024150,0.00011606,-0.00024207,-0.00024452,0.00018251,0.00011616,-0.000
 05563,0.00027987,-0.00022342,-0.00017793,0.00011435,-0.00015227,-0.000
 10509,0.00039849,-0.00008208,-0.00140995,0.00133135,-0.00056900,-0.000
 64613,0.00222401,0.00037101,-0.07284276,0.19446789,0.00084271,0.000590
 11,-0.00083422,-0.00030036,-0.00024886,0.00038096,-0.00101126,-0.00049
 818,0.00008542,0.00302937,0.00179205,0.00041131,-0.00069220,-0.0000846
 3,0.00043201,-0.00687427,0.00379572,0.00481065,-0.07961699,0.14191583,
 -0.23200802,-0.00753438,0.00439850,0.00860332,0.00222262,0.00932972,-0
 .03182322,-0.01611686,-0.00109657,0.00795559,0.00638524,0.00040429,-0.
 00219215,0.00084918,-0.00285828,-0.00364237,0.00206389,0.00317462,0.00
 338377,0.00001524,-0.00084665,-0.00060114,-0.00185834,-0.00141305,-0.0
 0085687,0.00201245,0.00144232,0.00061290,-0.00044982,-0.00072637,-0.00
 019933,-0.00068046,-0.00026142,0.00025467,-0.00029001,-0.00039805,-0.0
 0106857,-0.00064275,-0.00032970,-0.00042321,-0.00051784,-0.00008290,-0
 .00006070,-0.00020588,-0.00002924,0.00182391,0.00308262,0.00222830,-0.
 00126629,0.09628810,-0.16019751,0.24622158||0.10351603,0.24514625,-0.2
 2539177,-0.17086380,-0.18078012,0.15573472,0.03163949,-0.01246976,0.07
 544284,0.23018147,-0.21131448,0.11081185,-0.21660088,0.17051077,-0.048
 89631,-0.00438184,0.03489268,-0.01532607,-0.07495517,-0.31639433,0.045
 91403,0.06610141,0.27084864,-0.00428244,0.01114965,0.00971406,0.011952
 49,-0.17575954,0.08891750,-0.26810002,0.17809936,-0.05605737,0.2052302
 5,0.01153508,-0.03483190,0.03111503,-0.12351923,0.31232707,0.04164318,
 0.12150951,-0.24441909,-0.06445822,0.02265433,-0.04789428,0.01661736,-
 0.06685124,0.29205085,-0.08040087,0.10436332,-0.26997288,-0.02341866,0
 .01177649,-0.12187518,0.05366160,0.02176261,-0.00923771,-0.00824162,0.
 00659016,-0.02503714,-0.00867597,-0.10689207,0.03064752,0.00687393,0.0
 0406286,0.06058226,-0.02548224,0.01894661,-0.00380912,0.00948537,-0.00
 406461,0.01845577,0.00819152|||@


 IT WAS A GAME, A VERY INTERESTING GAME ONE COULD
 PLAY.  WHENEVER ONE SOLVED ONE OF THE LITTLE PROBLEMS,
 ONE COULD WRITE A PAPER ABOUT IT.  IT WAS VERY EASY IN
 THOSE DAYS FOR ANY SECOND-RATE PHYSICIST TO DO
 FIRST-RATE WORK.  THERE HAS NOT BEEN SUCH A GLORIOUS
 TIME SINCE.  IT IS VERY DIFFICULT NOW FOR A FIRST-RATE
 PHYSICIST TO DO SECOND-RATE WORK.
     P.A.M. DIRAC, ON THE EARLY DAYS OF QUANTUM MECHANICS
                   DIRECTIONS IN PHYSICS, 1978, P. 7
 Job cpu time:  0 days  0 hours 19 minutes 49.0 seconds.
 File lengths (MBytes):  RWF=    239 Int=      0 D2E=      0 Chk=      4 Scr=      1
 Normal termination of Gaussian 09 at Sat Dec 11 11:46:53 2021.
